(written by ASE)

5184 atoms
6 atom types

0.0      43.418483922388987  xlo xhi
0.0      55.441862757882376  ylo yhi
0.0      54.592876367629799  zlo zhi
     1.3561538682405885    0.065021644506496723      3.5799404451706858  xy xz yz

Masses

     1      22.989769274086012 # Na
     2      32.059999991752747 # S
     3      47.866999987686484 # Ti
     4      65.379999983181364 # Zn
     5       91.22399997653315 # Zr
     6      178.48999995408445 # Hf

Atoms # atomic

     1   1      4.5028497677709538      5.2199003080785618      1.3635767827681182
     2   1      6.5798196399079085      2.2061072644245687      1.9741938600680458
     3   1      2.4602285442420597      3.6084352435563543      6.0392623407863395
     4   1      5.4924281583747838      4.3812069844373855      8.8261683914875988
     5   1      5.5400950552414354      1.0240474343369139      9.4940771637719426
     6   1      1.7283220683930134      3.2785477495479469     0.41432409315786151
     7   1      1.1768801923375896      7.1884500437225869      16.783808907713862
     8   1      5.1932957583317423      4.6182164917563835      12.041448478980351
     9   1       2.628966377706313      4.0871655783548206      15.308568672447169
    10   1      6.3579236933548238      5.1387303145965655      17.229611022976957
    11   1      5.0743290936107117      1.5941172555437031      17.318837779719015
    12   1      1.6831225196978072        4.49338854839608      9.2590027588812021
    13   1      1.3276071200393804      13.545793362955134      6.7098491797532978
    14   1      5.1451465938395975      10.632157156096461      3.2891862049315619
    15   1      2.3698345901546491      7.9359054604560946      7.2450595491800422
    16   1      2.4894588678165652      13.619984651879685      0.3824681116528208
    17   1      5.9168079962097382      11.078786412544781      8.2807271499884827
    18   1      1.8574548741065138      14.657507663036698      15.221280974875524
    19   1      4.9779749392986181      11.981939944685482       11.66942777995944
    20   1      6.7364730334848115      8.4849377343211962      10.424210058215932
    21   1      2.7825148534234434      10.789775381351459      16.997153673491677
    22   1      1.9460054202971602     0.95164966681416874      9.6305602561952508
    23   1      6.0250902060003551      11.739532254830214      17.626992710065657
    24   1      1.4000933936417657      10.529872002384733       9.784363735440289
    25   1      8.1542235654085484      6.4517443245994377      7.7858971903294982
    26   1      13.542166736894735     0.75306513612018033      2.7601921616629559
    27   1      9.8887943120789874      3.2010899701657536       6.441939445769842
    28   1      9.0470588554907643      6.5944024021171117     0.45242284027012775
    29   1      12.883788209129207      1.1738230569196464      8.9641411630413881
    30   1      8.6868556015150507      7.6026974543389558       15.13663681331802
    31   1      12.436447681942402      4.3111156956856842      11.473063192285911
    32   1      9.5692687210464982      3.9840464362607277      15.619811337409221
    33   1      12.410968432186539      3.6529224861958909     0.14022626419762399
    34   1      12.774615037928113      1.1763138486085079      17.729772471654947
    35   1       9.043400563634366      3.9427933103486987      9.8034272367963045
    36   1      8.6554350224535455      14.112753053416249      6.2986082740932225
    37   1      13.218037268294525      7.1856149745924638      2.5557952768938632
    38   1       10.18172633737794      9.9425659859278355      7.9129512530961037
    39   1      9.1861742817824474    0.043122416383213805      0.2423208263803879
    40   1      12.796859331332438      7.3506462039862503      8.9102322513756516
    41   1       9.300057559471643      10.165981969754759     0.20373634768658647
    42   1      8.2726961985539766      14.537712180835417      14.762847519844305
    43   1      12.181077935642179      11.820064426473889      10.546875495907639
    44   1      13.157282717463247      7.9816538546271332      12.072336579717899
    45   1      9.6842746465274328      10.987657107579498      14.945500523826333
    46   1      9.3865753341008507      14.298971500662647      9.6754136510132973
    47   1      12.955985832003103       10.30833905496142     0.43703174001349532
    48   1       12.39616722456755       8.204598605526833      17.468186094746859
    49   2      4.6603584863344105      2.0034194282710938      5.1546947683543429
    50   2     0.99651211892622593      2.5542147392349754      3.6510013279448845
    51   2      2.9752541493925992      5.8932370228516735      3.4880429478204027
    52   2      6.6979382047148217      5.4093132022055386      5.4370625082401363
    53   2      3.9436774981691585      1.8163535163810092      1.2113853881266128
    54   2      0.4822941824718191      2.2646103501774073      7.5584542892227109
    55   2      3.5354312178179916      5.5654529063171818      7.4660405888807118
    56   2      7.1665255162377877      4.8851648863236239      1.4084765270018769
    57   2      4.5373350981946396      2.2693948856489401      14.424402761081694
    58   2     0.89401569861516827      3.0331197979208415      13.086545675281947
    59   2      3.0866588205294438      6.2837431861409039       13.00025383647443
    60   2      6.6321795816266187      5.7394456524704776      14.452002538074174
    61   2      3.7323522425355438      2.8524098361573245      10.446194678986727
    62   2     0.41712725067216805      2.6771710217790075      16.963993360122743
    63   2      3.6566676615289926      6.0472906447684807      16.919782687331072
    64   2      7.2300700249802725       5.829215259002555      10.489596536177094
    65   2      4.4116656151770934      8.6891002060374269      5.2539613933748397
    66   2     0.56607394780770171      8.9295695523709657      3.8211218403095519
    67   2      3.0765474306685561      12.854173830913567        3.98350661656659
    68   2      6.7994945493875525      12.195370405048379      5.3533686138808445
    69   2      3.1255986590740572      9.8509733699917845      1.7061581217913204
    70   2      14.566227103912743      9.1612479939903206       7.888297698839434
    71   2      3.9648717150723969      13.133765041520878      7.8159567485037611
    72   2      7.4658519397782319       12.05800925870976      1.4599027477382869
    73   2      4.4898554373779938      9.2520780243597862       14.72762150602667
    74   2     0.92046527707376369      9.6802463540631507      12.836681759257294
    75   2      3.1053108159633891      13.615630113073106      12.769381429420932
    76   2      6.6307240126786304      12.451803634363888       14.09468900912494
    77   2      4.0556262220873203      9.5276797448887294      10.707002865726786
    78   2      14.695041997329326      9.8718184798652349      16.918662508838036
    79   2       3.893969162608041      13.232976769874302      16.726784564408764
    80   2      7.2833071684259947      12.608431018863389      10.148046081680876
    81   2      11.959450491075037      1.6082610195745444      5.1591360886384123
    82   2      8.3409544624620686      2.3412279841123933      4.1514028803967147
    83   2      10.179522826990853      5.7620884598949456      3.7433023121655529
    84   2      13.805938430602168      5.2845941457012655      5.0696854420182405
    85   2      11.279553074619686      1.4582248548068091      1.2830853498795651
    86   2      7.5258068185476468      2.3399912859543881      7.9297018549931693
    87   2      10.816201642096152      5.4968658650783606      7.6722378954006754
    88   2      14.397874345335474      5.3308542333673383      1.0044201449698353
    89   2      11.713518455278365      2.3455767734278408      14.544925669474196
    90   2       8.158694711378546      2.9820123635518168      12.933833487387673
    91   2      10.370488473008903      6.3217137133125378      12.791444035789127
    92   2      13.929783490310172       5.884952644217738      14.713692519236133
    93   2      10.981105089973044      2.2240828388243341      10.489055149923306
    94   2      7.5029192204307931      2.5809442266516092      16.771044719098501
    95   2      10.592659247450328      6.2713473674364453       16.72868723673157
    96   2      14.395500214363341      6.0151147295007821      10.693520031497638
    97   2      11.628701834455249      8.7465196282866415       5.420569497994336
    98   2      8.0400257133444182      9.0769517194673988      3.6901508868346773
    99   2        10.5418800933308      12.502634911810677      3.6623896663335325
   100   2      14.167843811289249      12.020299240700433      5.0995330712526217
   101   2      11.094182495542841      8.5173037724529355      1.3318989983042908
   102   2      7.5951937050647276      9.0612262521854188      7.7043869671462399
   103   2      11.007470161274272      12.823625784298903      7.6444546034347463
   104   2      14.700181227850473      12.235948147582981      1.3441816409273826
   105   2      11.907554408488526      9.3202378054092634      14.469785374830112
   106   2      8.1432840919920721      9.6197375842599104      12.804192782516321
   107   2      10.273443840205571       13.24065665208256      12.935232032232086
   108   2      14.163191730505023      12.868058407111043      14.324227583894823
   109   2      11.343083779238293      9.2727576975182817       10.35542948873797
   110   2      7.8315030041946896      9.8072152940150303      16.722195052904286
   111   2      11.071205643901919      13.106344219086058      16.751704796507163
   112   2      14.661922025326454       12.96479226621304      10.183256954369529
   113   4     0.85186828931430425      4.8944581690880264      3.0608467266752353
   114   4      4.4128149318606322      6.1968771739299564      5.4753698268755553
   115   4      6.7329881904765756      3.1656535713002465      5.9544753890222442
   116   4        3.12137049812601      1.7011682406935711       3.274213608926503
   117   4     0.74104826346363228      5.3672259578478236      12.673032460733682
   118   4      4.5304431575871762      6.7987612078411361      14.961479716823662
   119   4      6.6108301171056087      3.3486328143142177      14.738619616982453
   120   4      3.0771210060178125      2.1515769258229933      12.500156735396727
   121   4      6.6676235015952514      8.7797759154143549      5.7158228809835085
   122   4      2.8756860278814305      8.1857512241263528       3.415573192516288
   123   4     0.95983274597192647      13.107182993954391      12.238789550736417
   124   4      4.7066497906563525      13.714243833222843      14.631536081417886
   125   4      6.7019398624183761      10.182203180925635      14.765828196243152
   126   4      7.8999931419055525      4.7939601630140309      3.5162210583505997
   127   4      14.035905617064754      2.9553443708251357      5.6116968012295008
   128   4       10.35817577954308      1.7757061173387223      3.2668008575523078
   129   4      8.1808739953706215      5.3761570750409735      12.530862018718791
   130   4      11.676946987627433      6.4899833219642389      14.755535736116492
   131   4      14.079730658241152      3.5288719535862576      15.008466871982488
   132   4      10.198556207685749      1.9400658636027566      12.568372367884834
   133   4      13.961403085455585      9.5926547431858769      5.8202568291445127
   134   4       10.30527386829112      8.1936321134009642      3.4660385816203543
   135   4      7.9341320271554734       11.85300538235146      12.138383973962808
   136   4      10.026378274431694       8.505025256371491      11.964017056660415
   137   5      1.4316573749451036      11.088770665638549       3.020496427209618
   138   5      4.7215627035100276      13.523722729858013      5.6230071037045022
   139   5      3.1863658146662504      8.6841669361118647      12.746109092301223
   140   5      11.631833867461541      6.2862996214833089      5.5904522883840988
   141   5      8.3424914327702506      11.471190509623002       3.568016893666683
   142   5      12.027438549917191      13.063560049353258      5.5218967372294978
   143   5        11.8812056906848      13.813205750111319      14.614954183202501
   144   5      13.997186052824333      10.373029544760998      14.719080395167897
   145   1        4.52452364927312      6.4132137898021231      19.561202238644714
   146   1      6.6014935214100747      3.3994207461481305      20.171819315944639
   147   1      2.4819024257442255       4.801748725279916      24.236887796662934
   148   1        5.51410203987695      5.5745204661609478      27.023793847364196
   149   1      5.5617689367435998      2.2173609160604757      27.691702619648538
   150   1      1.7499959498951791      4.4718612312715091       18.61194954903446
   151   1      1.1985540738397551      8.3817635254461482      34.981434363590459
   152   1      5.2149696398339085      5.8115299734799457      30.239073934856947
   153   1      2.6506402592084792       5.280479060078382      33.506194128323763
   154   1        6.37959757485699      6.3320437963201268      35.427236478853551
   155   1      5.0960029751128779      2.7874307372672651      35.516463235595609
   156   1       1.704796401199973      5.6867020301196423      27.456628214757796
   157   1      1.3492810015415462      14.739106844678696      24.907474635629896
   158   1      5.1668204753417637      11.825470637820022      21.486811660808161
   159   1      2.3915084716568145      9.1292189421796568      25.442685005056639
   160   1       2.511132749318731      14.813298133603247      18.580093567529417
   161   1      5.9384818777119044      12.272099894268344       26.47835260586508
   162   1      1.8791287556086795      15.850821144760259      33.418906430752116
   163   1      4.9996488208007834      13.175253426409043      29.867053235836035
   164   1      6.7581469149869777      9.6782512160447567      28.621835514092528
   165   1      2.8041887349256092       11.98308886307502      35.194779129368278
   166   1      1.9676793017993259      2.1449631485377303       27.82818571207185
   167   1      6.0467640875025204      12.932845736553777      35.824618165942255
   168   1      1.4217672751439314      11.723185484108294      27.981989191316888
   169   1      8.1758974469107155       7.645057806322999      25.983522646206094
   170   1      13.563840618396901      1.9463786178437423      20.957817617539554
   171   1      9.9104681935811509      4.3944034518893158      24.639564901646438
   172   1      9.0687327369929331       7.787715883840673      18.650048296146725
   173   1      12.905462090631376      2.3671365386432082      27.161766618917984
   174   1      8.7085294830172177      8.7960109360625154      33.334262269194618
   175   1      12.458121563444568      5.5044291774092464      29.670688648162507
   176   1      9.5909426025486635      5.1773599179842904      33.817436793285822
   177   1      12.432642313688705      4.8462359679194531      18.337851720074219
   178   1      12.796288919430278      2.3696273303320692      35.927397927531537
   179   1      9.0650744451365313      5.1361067920722601        28.0010526926729
   180   1      8.6771089039557108      15.306066535139811       24.49623372996982
   181   1       13.23971114979669      8.3789284563160251      20.753420732770461
   182   1      10.203400218880104      11.135879467651398      26.110576708972701
   183   1      9.2078481632846145      1.2364358981067756      18.439946282256983
   184   1      12.818533212834605      8.5439596857098117      27.107857707252247
   185   1      9.3217314409738101      11.359295451478321      18.401361803563184
   186   1      8.2943700800561437      15.731025662558979      32.960472975720904
   187   1      12.202751817144346      13.013377908197452      28.744500951784232
   188   1      13.178956598965412      9.1749673363506954      30.269962035594496
   189   1      9.7059485280295981      12.180970589303058       33.14312597970293
   190   1       9.408249215603016      15.492284982386208      27.873039106889891
   191   1      12.977659713505266      11.501652536684981      18.634657195890092
   192   1      12.417841106069718      9.3979120872503952      35.665811550623452
   193   2      4.6820323678365749      3.1967329099946555       23.35232022423094
   194   2      1.0181860004283914      3.7475282209585372       21.84862678382148
   195   2      2.9969280308947646      7.0865505045752348      21.685668403696997
   196   2       6.719612086216987      6.6026266839291008      23.634687964116733
   197   2      3.9653513796713242      3.0096669981045707      19.409010844003209
   198   2     0.50396806397398475      3.4579238319009695      25.756079745099306
   199   2      3.5571050993201578      6.7587663880407431       25.66366604475731
   200   2      7.1881993977399539      6.0784783680471852      19.606101982878474
   201   2       4.559008979696805      3.4627083673725023      32.622028216958284
   202   2     0.91568958011733381      4.2264332796444029      31.284171131158544
   203   2      3.1083327020316101      7.4770566678644652      31.197879292351022
   204   2      6.6538534631287849      6.9327591341940398      32.649627993950773
   205   2      3.7540261240377095      4.0457233178808867      28.643820134863322
   206   2     0.43880113217433359      3.8704845035025697       35.16161881599934
   207   2      3.6783415430311583      7.2406041264920429      35.117408143207669
   208   2      7.2517439064824369      7.0225287407261172       28.68722199205369
   209   2      4.4333394966792588      9.8824136877609874      23.451586849251434
   210   2     0.58774782930986713      10.122883034094528      22.018747296186145
   211   2      3.0982213121707214      14.047487312637127      22.181132072443184
   212   2      6.8211684308897187      13.388683886771942      23.550994069757444
   213   2      3.1472725405762225      11.044286851715345      19.903783577667916
   214   2      14.587900985414908      10.354561475713881      26.085923154716028
   215   2      3.9865455965745626       14.32707852324444      26.013582204380356
   216   2      7.4875258212803981      13.251322740433322      19.657528203614881
   217   2        4.51152931888016      10.445391506083347      32.925246961903269
   218   2     0.94213915857592934      10.873559835786713      31.034307215133889
   219   2      3.1269846974655549      14.808943594796668      30.967006885297529
   220   2      6.6523978941807957       13.64511711608745      32.292314465001539
   221   2      4.0773001035894865       10.72099322661229      28.904628321603383
   222   2      14.716715878831494      11.065131961588797       35.11628796471463
   223   2      3.9156430441102064      14.426290251597864      34.924410020285357
   224   2      7.3049810499281591      13.801744500586949      28.345671537557468
   225   2      11.981124372577202      2.8015745012981061      23.356761544515006
   226   2      8.3626283439642339      3.5345414658359551      22.349028336273314
   227   2      10.201196708493017      6.9554019416185078      21.940927768042151
   228   2      13.827612312104336      6.4779076274248268      23.267310897894834
   229   2      11.301226956121852      2.6515383365303706      19.480710805756161
   230   2      7.5474807000498121      3.5333047676779499      26.127327310869763
   231   2      10.837875523598317      6.6901793468019228      25.869863351277271
   232   2      14.419548226837639      6.5241677150908997      19.202045600846432
   233   2       11.73519233678053      3.5388902551514025      32.742551125350793
   234   2      8.1803685928807131      4.1753258452753785      31.131458943264267
   235   2       10.39216235451107      7.5150271950361001      30.989069491665724
   236   2      13.951457371812337      7.0782661259412993       32.91131797511273
   237   2      11.002778971475209      3.4173963205478959        28.6866806057999
   238   2      7.5245931019329593      3.7742577083751709      34.968670174975095
   239   2      10.614333128952493      7.4646608491600066      34.926312692608171
   240   2      14.417174095865507      7.2084282112243443      28.891145487374235
   241   2      11.650375715957413      9.9398331100102038      23.618194953870933
   242   2      8.0616995948465817      10.270265201190961      21.887776342711273
   243   2      10.563553974832963      13.695948393534239      21.860015122210129
   244   2      14.189517692791418      13.213612722423994      23.297158527129216
   245   2      11.115856377045006      9.7106172541764959      19.529524454180887
   246   2      7.6168675865668938      10.254539733908981      25.902012423022835
   247   2      11.029144042776435      14.016939266022463      25.842080059311343
   248   2       14.72185510935264      13.429261629306543      19.541807096803979
   249   2      11.929228289990691      10.513551287132826      32.667410830706707
   250   2      8.1649579734942357      10.813051065983473      31.001818238392914
   251   2      10.295117721707738      14.433970133806122      31.132857488108684
   252   2      14.184865612007188      14.061371888834605      32.521853039771415
   253   2      11.364757660740459      10.466071179241844      28.553054944614566
   254   2      7.8531768856968558      11.000528775738591       34.91982050878088
   255   2      11.092879525404086      14.299657700809618       34.94933025238376
   256   2      14.683595906828618      14.158105747936602      28.380882410246123
   257   4     0.87354217081646979      6.0877716508115878      21.258472182551831
   258   4      4.4344888133627984      7.3901906556535195      23.672995282752154
   259   4      6.7546620719787409      4.3589670530238083       24.15210084489884
   260   4      3.1430443796281753      2.8944817224171326      21.471839064803099
   261   4     0.76272214496579793      6.5605394395713859      30.870657916610281
   262   4      4.5521170390893424      7.9920746895646984      33.159105172700265
   263   4       6.632503998607775      4.5419462960377794      32.936245072859052
   264   4      3.0987948875199787      3.3448904075465551      30.697782191273323
   265   4      6.6892973830974176      9.9730893971379153      23.913448336860103
   266   4      2.8973599093835962       9.379064705849915      21.613198648392885
   267   4      0.9815066274740919      14.300496475677951      30.436415006613011
   268   4      4.7283236721585178      14.907557314946404      32.829161537294482
   269   4      6.7236137439205415      11.375516662649197      32.963453652119746
   270   4      7.9216670234077187      5.9872736447375932      21.713846514227193
   271   4       14.05757949856692      4.1486578525486975      23.809322257106096
   272   4      10.379849661045249      2.9690195990622841      21.464426313428906
   273   4      8.2025478768727851      6.5694705567645357      30.728487474595383
   274   4        11.6986208691296      7.6832968036878002       32.95316119199309
   275   4      14.101404539743315      4.7221854353098189      33.206092327859082
   276   4      10.220230089187917      3.1333793453263183      30.765997823761431
   277   4       13.98307696695775      10.785968224909437      24.017882285021109
   278   4      10.326947749793284      9.3869455951245264       21.66366403749695
   279   4      7.9558059086576387      13.046318864075023      30.336009429839404
   280   4       10.04805215593386      9.6983387380950532      30.161642512537011
   281   5      1.4533312564472693      12.282084147362111      21.218121883086216
   282   5      4.7432365850121938      14.717036211581576      23.820632559581099
   283   5      3.2080396961684157       9.877480417835427      30.943734548177822
   284   5      11.653507748963706      7.4796131032068702      23.788077744260693
   285   5      8.3641653142724177      12.664503991346562      21.765642349543281
   286   5      12.049112431419356       14.25687353107682      23.719522193106094
   287   5      11.902879572186965      15.006519231834881      32.812579639079097
   288   5      14.018859934326501       11.56634302648456       32.91670585104449
   289   1      4.5461975307752844      7.6065272715256853      37.758827694521308
   290   1      6.6231674029122409      4.5927342278716923      38.369444771821236
   291   1      2.5035763072463912      5.9950622070034782      42.434513252539524
   292   1      5.5357759213791162      6.7678339478845091      45.221419303240793
   293   1       5.583442818245766      3.4106743977840379      45.889328075525135
   294   1      1.7716698313973445      5.6651747129950714      36.809575004911053
   295   1      1.2202279553419206      9.5750770071697104      53.179059819467057
   296   1      5.2366435213360729       7.004843455203507      48.436699390733537
   297   1      2.6723141407106445      6.4737925418019442       51.70381958420036
   298   1      6.4012714563591553      7.5253572780436899      53.624861934730156
   299   1      5.1176768566150423      3.9807442189908269      53.714088691472206
   300   1      1.7264702827021383      6.8800155118432045       45.65425367063439
   301   1      1.3709548830437115      15.932420326402259      43.105100091506486
   302   1       5.188494356843929      13.018784119543586      39.684437116684755
   303   1      2.4131823531589807      10.322532423903219      43.640310460933229
   304   1      2.5328066308208959      16.006611615326808      36.777719023406014
   305   1      5.9601557592140697      13.465413375991906      44.675978061741674
   306   1      1.9008026371108446      17.044134626483824      51.616531886628714
   307   1      5.0213227023029496      14.368566908132607      48.064678691712629
   308   1       6.779820796489143      10.871564697768321      46.819460969969121
   309   1      2.8258626164277745      13.176402344798584      53.392404585244869
   310   1       1.989353183301491      3.3382766302612921      46.025811167948447
   311   1      6.0684379690046866      14.126159218277339      54.022243621818852
   312   1      1.4434411566460967      12.916498965831858      46.179614647193482
   313   1      8.1975713284128808      8.8383712880465612      44.181148102082688
   314   1      13.585514499899064      3.1396920995673039      39.155443073416151
   315   1      9.9321420750833198      5.5877169336128771      42.837190357523035
   316   1      9.0904066184950967      8.9810293655642361      36.847673752023319
   317   1       12.92713597213354      3.5604500203667699      45.359392074794577
   318   1      8.7302033645193831      9.9893244177860776      51.531887725071208
   319   1      12.479795444946733      6.6977426591328086      47.868314104039108
   320   1      9.6126164840508306      6.3706733997078517      52.015062249162412
   321   1      12.454316195190868      6.0395494496430153      36.535477175950817
   322   1      12.817962800932444      3.5629408120556318      54.125023383408141
   323   1      9.0867483266386966      6.3294202737958223      46.198678148549497
   324   1      8.6987827854578761      16.499380016863373      42.693859185846414
   325   1      13.261385031298854      9.5722419380395873      38.951046188647055
   326   1      10.225074100382271      12.329192949374958      44.308202164849298
   327   1      9.2295220447867798      2.4297493798303371       36.63757173813358
   328   1      12.840207094336771      9.7372731674333739      45.305483163128841
   329   1      9.3434053224759754      12.552608933201883      36.598987259439781
   330   1      8.3160439615583091      16.924339144282538      51.158098431597502
   331   1      12.224425698646511      14.206691389921014       46.94212640766083
   332   1      13.200630480467577      10.368280818074256      48.467587491471093
   333   1      9.7276224095317634       13.37428407102662      51.340751435579527
   334   1      9.4299230971051831      16.685598464109766      46.070664562766488
   335   1      12.999333595007435      12.694966018408543       36.83228265176669
   336   1      12.439514987571881      10.591225568973957      53.863437006500057
   337   2      4.7037062493387412      4.3900463917182178      41.549945680107534
   338   2      1.0398598819305571      4.9408417026820999      40.046252239698077
   339   2      3.0186019123969299      8.2798639862987997      39.883293859573591
   340   2      6.7412859677191532       7.795940165652663      41.832313419993326
   341   2        3.98702526117349      4.2029804798281329      37.606636299879803
   342   2     0.52564194547615029      4.6512373136245309      43.953705200975897
   343   2      3.5787789808223232      7.9520798697643054      43.861291500633904
   344   2      7.2098732792421192      7.2717918497707474      37.803727438755068
   345   2      4.5806828611989712      4.6560218490960645      50.819653672834889
   346   2     0.93736346161949924      5.4197467613679642      49.481796587035134
   347   2      3.1300065835337754      8.6703701495880257      49.395504748227623
   348   2      6.6755273446309511       8.126072615917602      50.847253449827363
   349   2      3.7757000055398753      5.2390367996044489      46.841445590739923
   350   2     0.46047501367649918      5.0637979852261301       53.35924427187593
   351   2      3.7000154245333237      8.4339176082156051      53.315033599084259
   352   2      7.2734177879846031      8.2158422224496803      46.884847447930284
   353   2       4.455013378181425      11.075727169484551      41.649212305128032
   354   2     0.60942171081203289      11.316196515818088      40.216372752062746
   355   2      3.1198951936728876      15.240800794360689      40.378757528319781