LAMMPS (2 Aug 2023 - Update 3)
OMP_NUM_THREADS environment is not set. Defaulting to 1 thread. (../comm.cpp:98)
  using 1 OpenMP thread(s) per MPI task

The 'box' command has been removed and will be ignored

Reading data file ...
  triclinic box = (0 0 0) to (43.418484 55.441863 54.592876) with tilt (1.3561539 0.065021645 3.5799404)
  2 by 7 by 4 MPI processor grid
  reading atoms ...
  5184 atoms
  read_data CPU = 0.016 seconds
1728 atoms in group Na
2304 atoms in group S
864 atoms in group Zn
288 atoms in group Zr
Neighbor list info ...
  update: every = 1 steps, delay = 0 steps, check = no
  max neighbors/atom: 2000, page size: 100000
  master list distance cutoff = 8.5
  ghost atom cutoff = 8.5
  binsize = 4.25, bins = 11 14 13
  1 neighbor lists, perpetual/occasional/extra = 1 0 0
  (1) pair mlip, perpetual
      attributes: full, newton on
      pair build: full/bin/atomonly
      stencil: full/bin/3d
      bin: standard
Setting up cg style minimization ...
  Unit style    : metal
  Current step  : 0
Per MPI rank memory allocation (min/avg/max) = 3.732 | 3.733 | 3.735 Mbytes
   Step         PotEng         KinEng         TotEng         Press            Lx             Ly             Lz           Volume        Density    
         0  -7728147.4      0             -7728147.4      1317.9575      43.418484      55.441863      54.592876      131416.06      2.48107      
       100  -7728202.7      0             -7728202.7     -3598.3508      43.418484      55.441863      54.592876      131416.06      2.48107      
Loop time of 0.76732 on 56 procs for 100 steps with 5184 atoms

99.4% CPU use with 56 MPI tasks x 1 OpenMP threads

Minimization stats:
  Stopping criterion = energy tolerance
  Energy initial, next-to-last, final = 
     -7728147.38529246  -7728202.67468242  -7728202.74768945
  Force two-norm initial, final = 10.505337 1.0259659
  Force max component initial, final = 0.3077835 0.04673025
  Final line search alpha, max atom move = 1 0.04673025
  Iterations, force evaluations = 100 193

MPI task timing breakdown:
Section |  min time  |  avg time  |  max time  |%varavg| %total
---------------------------------------------------------------
Pair    | 0.41079    | 0.48355    | 0.67221    |   6.3 | 63.02
Neigh   | 0.052146   | 0.061642   | 0.07269    |   1.9 |  8.03
Comm    | 0.018906   | 0.15066    | 0.27952    |  22.0 | 19.63
Output  | 0          | 0          | 0          |   0.0 |  0.00
Modify  | 0          | 0          | 0          |   0.0 |  0.00
Other   |            | 0.07147    |            |       |  9.31

Nlocal:        92.5714 ave         109 max          80 min
Histogram: 2 7 7 11 14 5 2 0 3 5
Nghost:        1118.64 ave        1166 max        1074 min
Histogram: 5 4 4 6 12 5 10 2 4 4
Neighs:              0 ave           0 max           0 min
Histogram: 56 0 0 0 0 0 0 0 0 0
FullNghs:      9285.43 ave       11053 max        7898 min
Histogram: 2 7 7 8 16 6 2 0 3 5

Total # of neighbors = 519984
Ave neighs/atom = 100.30556
Neighbor list builds = 194
Dangerous builds not checked
System init for write_data ...
Setting up Verlet run ...
  Unit style    : metal
  Current step  : 0
  Time step     : 0.003
Per MPI rank memory allocation (min/avg/max) = 2.623 | 2.624 | 2.627 Mbytes
   Step         PotEng         KinEng         TotEng         Press            Lx             Ly             Lz           Volume        Density    
         0  -7728202.7      669.95533     -7727532.8      1846.8826      43.418484      55.441863      54.592876      131416.06      2.48107      
Loop time of 3.76587e-06 on 56 procs for 0 steps with 5184 atoms

119.0% CPU use with 56 MPI tasks x 1 OpenMP threads

MPI task timing breakdown:
Section |  min time  |  avg time  |  max time  |%varavg| %total
---------------------------------------------------------------
Pair    | 0          | 0          | 0          |   0.0 |  0.00
Neigh   | 0          | 0          | 0          |   0.0 |  0.00
Comm    | 0          | 0          | 0          |   0.0 |  0.00
Output  | 0          | 0          | 0          |   0.0 |  0.00
Modify  | 0          | 0          | 0          |   0.0 |  0.00
Other   |            | 3.766e-06  |            |       |100.00

Nlocal:        92.5714 ave         109 max          80 min
Histogram: 2 7 7 11 14 5 2 0 3 5
Nghost:        1118.64 ave        1166 max        1074 min
Histogram: 5 4 4 6 12 5 10 2 4 4
Neighs:              0 ave           0 max           0 min
Histogram: 56 0 0 0 0 0 0 0 0 0
FullNghs:      9285.43 ave       11053 max        7898 min
Histogram: 2 7 7 8 16 6 2 0 3 5

Total # of neighbors = 519984
Ave neighs/atom = 100.30556
Neighbor list builds = 0
Dangerous builds not checked
System init for write_restart ...
Setting up Verlet run ...
  Unit style    : metal
  Current step  : 0
  Time step     : 0.003
Per MPI rank memory allocation (min/avg/max) = 2.982 | 2.983 | 2.986 Mbytes
   Step         TotEng          Temp          Volume          Pxx            Pyy            Pzz             Lx             Ly             Lz         c_msd1[4]   
         0  -7727532.8      1000           131416.06      4625.142       74.418194      841.08767      43.418484      55.441863      54.592876      2.0493949e-29
     20000  -7726862.5      985.53784      131416.06      6779.3233      6976.1558      6941.0443      43.418484      55.441863      54.592876      105.19594    
     40000  -7726859.5      995.14792      131416.06      7372.825       7502.1186      7304.7257      43.418484      55.441863      54.592876      206.82441    
     60000  -7726857.9      996.01956      131416.06      7465.5838      7189.1607      8258.9272      43.418484      55.441863      54.592876      318.44534    
     80000  -7726840        1017.642       131416.06      5863.3757      7175.4735      7129.0188      43.418484      55.441863      54.592876      428.30556    
    100000  -7726859.8      1003.2579      131416.06      6076.5255      7669.6348      5882.7225      43.418484      55.441863      54.592876      536.22851    
    120000  -7726873.9      995.54125      131416.06      7410.8334      7968.9512      8417.2349      43.418484      55.441863      54.592876      649.15558    
    140000  -7726849.9      1015.1128      131416.06      6824.6853      6018.5518      6406.1407      43.418484      55.441863      54.592876      766.3966     
    160000  -7726850.3      1001.2767      131416.06      6491.8046      5814.3911      8310.8686      43.418484      55.441863      54.592876      878.81554    
    180000  -7726867.4      1004.5871      131416.06      5519.688       7069.0723      7078.63        43.418484      55.441863      54.592876      990.73542    
    200000  -7726841.5      997.56922      131416.06      5763.8231      6728.0531      7051.5352      43.418484      55.441863      54.592876      1093.8562    
    220000  -7726855.7      1005.0389      131416.06      7856.1315      8620.3434      6289.1912      43.418484      55.441863      54.592876      1186.865     
    240000  -7726853        989.86812      131416.06      6153.464       6288.752       6783.6061      43.418484      55.441863      54.592876      1309.9822    
    260000  -7726868.8      989.91366      131416.06      7175.8554      6284.8112      7223.1122      43.418484      55.441863      54.592876      1418.2423    
    280000  -7726858.6      996.54672      131416.06      7987.0986      7700.2906      7386.1848      43.418484      55.441863      54.592876      1519.2921    
    300000  -7726865.5      1011.8977      131416.06      5538.1794      6396.8263      4863.5704      43.418484      55.441863      54.592876      1628.2709    
    320000  -7726851        997.29206      131416.06      7372.6398      8583.1378      6094.507       43.418484      55.441863      54.592876      1742.4721    
    340000  -7726843.7      1027.5768      131416.06      8377.6082      6973.8264      7470.4998      43.418484      55.441863      54.592876      1846.8933    
    350000  -7726865.3      987.14752      131416.06      6214.1963      6652.9066      6228.26        43.418484      55.441863      54.592876      1913.4446    
Loop time of 1195.03 on 56 procs for 350000 steps with 5184 atoms

Performance: 75.914 ns/day, 0.316 hours/ns, 292.880 timesteps/s, 1.518 Matom-step/s
99.7% CPU use with 56 MPI tasks x 1 OpenMP threads

MPI task timing breakdown:
Section |  min time  |  avg time  |  max time  |%varavg| %total
---------------------------------------------------------------
Pair    | 893.18     | 920.51     | 949.96     |  38.7 | 77.03
Neigh   | 114.75     | 117.02     | 120.59     |  10.7 |  9.79
Comm    | 108.11     | 138.18     | 167.99     | 105.6 | 11.56
Output  | 0.0041364  | 0.0068966  | 0.0096874  |   2.0 |  0.00
Modify  | 16.212     | 18.786     | 21.673     |  30.5 |  1.57
Other   |            | 0.5366     |            |       |  0.04

Nlocal:        92.5714 ave         100 max          82 min
Histogram: 3 1 2 5 6 10 10 6 10 3
Nghost:        1073.25 ave        1088 max        1057 min
Histogram: 2 3 3 9 15 6 3 3 8 4
Neighs:              0 ave           0 max           0 min
Histogram: 56 0 0 0 0 0 0 0 0 0
FullNghs:      9304.14 ave       10178 max        8038 min
Histogram: 3 1 3 3 5 14 7 8 6 6

Total # of neighbors = 521032
Ave neighs/atom = 100.50772
Neighbor list builds = 350000
Dangerous builds not checked
System init for write_restart ...
Total wall time: 0:20:35
