LAMMPS (2 Aug 2023 - Update 3)
OMP_NUM_THREADS environment is not set. Defaulting to 1 thread. (../comm.cpp:98)
  using 1 OpenMP thread(s) per MPI task

The 'box' command has been removed and will be ignored

Reading data file ...
  triclinic box = (0 0 0) to (43.418484 55.441863 54.592876) with tilt (1.3561539 0.065021645 3.5799404)
  2 by 7 by 4 MPI processor grid
  reading atoms ...
  5184 atoms
  read_data CPU = 0.019 seconds
1728 atoms in group Na
2304 atoms in group S
864 atoms in group Zn
288 atoms in group Zr
Neighbor list info ...
  update: every = 1 steps, delay = 0 steps, check = no
  max neighbors/atom: 2000, page size: 100000
  master list distance cutoff = 8.5
  ghost atom cutoff = 8.5
  binsize = 4.25, bins = 11 14 13
  1 neighbor lists, perpetual/occasional/extra = 1 0 0
  (1) pair mlip, perpetual
      attributes: full, newton on
      pair build: full/bin/atomonly
      stencil: full/bin/3d
      bin: standard
Setting up cg style minimization ...
  Unit style    : metal
  Current step  : 0
Per MPI rank memory allocation (min/avg/max) = 3.732 | 3.733 | 3.735 Mbytes
   Step         PotEng         KinEng         TotEng         Press            Lx             Ly             Lz           Volume        Density    
         0  -7728147.4      0             -7728147.4      1317.9575      43.418484      55.441863      54.592876      131416.06      2.48107      
       100  -7728202.7      0             -7728202.7     -3598.3508      43.418484      55.441863      54.592876      131416.06      2.48107      
Loop time of 0.666114 on 56 procs for 100 steps with 5184 atoms

99.2% CPU use with 56 MPI tasks x 1 OpenMP threads

Minimization stats:
  Stopping criterion = energy tolerance
  Energy initial, next-to-last, final = 
     -7728147.38529246  -7728202.67468242  -7728202.74768945
  Force two-norm initial, final = 10.505337 1.0259659
  Force max component initial, final = 0.3077835 0.04673025
  Final line search alpha, max atom move = 1 0.04673025
  Iterations, force evaluations = 100 193

MPI task timing breakdown:
Section |  min time  |  avg time  |  max time  |%varavg| %total
---------------------------------------------------------------
Pair    | 0.41465    | 0.48074    | 0.56669    |   5.1 | 72.17
Neigh   | 0.052092   | 0.061897   | 0.072468   |   1.9 |  9.29
Comm    | 0.022996   | 0.099307   | 0.19213    |  15.6 | 14.91
Output  | 0          | 0          | 0          |   0.0 |  0.00
Modify  | 0          | 0          | 0          |   0.0 |  0.00
Other   |            | 0.02418    |            |       |  3.63

Nlocal:        92.5714 ave         109 max          80 min
Histogram: 2 7 7 11 14 5 2 0 3 5
Nghost:        1118.64 ave        1166 max        1074 min
Histogram: 5 4 4 6 12 5 10 2 4 4
Neighs:              0 ave           0 max           0 min
Histogram: 56 0 0 0 0 0 0 0 0 0
FullNghs:      9285.43 ave       11053 max        7898 min
Histogram: 2 7 7 8 16 6 2 0 3 5

Total # of neighbors = 519984
Ave neighs/atom = 100.30556
Neighbor list builds = 194
Dangerous builds not checked
System init for write_data ...
Setting up Verlet run ...
  Unit style    : metal
  Current step  : 0
  Time step     : 0.003
Per MPI rank memory allocation (min/avg/max) = 2.623 | 2.624 | 2.627 Mbytes
   Step         PotEng         KinEng         TotEng         Press            Lx             Ly             Lz           Volume        Density    
         0  -7728202.7      669.95533     -7727532.8      1846.8826      43.418484      55.441863      54.592876      131416.06      2.48107      
Loop time of 5.01198e-06 on 56 procs for 0 steps with 5184 atoms

111.2% CPU use with 56 MPI tasks x 1 OpenMP threads

MPI task timing breakdown:
Section |  min time  |  avg time  |  max time  |%varavg| %total
---------------------------------------------------------------
Pair    | 0          | 0          | 0          |   0.0 |  0.00
Neigh   | 0          | 0          | 0          |   0.0 |  0.00
Comm    | 0          | 0          | 0          |   0.0 |  0.00
Output  | 0          | 0          | 0          |   0.0 |  0.00
Modify  | 0          | 0          | 0          |   0.0 |  0.00
Other   |            | 5.012e-06  |            |       |100.00

Nlocal:        92.5714 ave         109 max          80 min
Histogram: 2 7 7 11 14 5 2 0 3 5
Nghost:        1118.64 ave        1166 max        1074 min
Histogram: 5 4 4 6 12 5 10 2 4 4
Neighs:              0 ave           0 max           0 min
Histogram: 56 0 0 0 0 0 0 0 0 0
FullNghs:      9285.43 ave       11053 max        7898 min
Histogram: 2 7 7 8 16 6 2 0 3 5

Total # of neighbors = 519984
Ave neighs/atom = 100.30556
Neighbor list builds = 0
Dangerous builds not checked
System init for write_restart ...
Setting up Verlet run ...
  Unit style    : metal
  Current step  : 0
  Time step     : 0.003
Per MPI rank memory allocation (min/avg/max) = 2.982 | 2.983 | 2.986 Mbytes
   Step         TotEng          Temp          Volume          Pxx            Pyy            Pzz             Lx             Ly             Lz         c_msd1[4]   
         0  -7727532.8      1000           131416.06      4994.5171     -97.490389      643.62118      43.418484      55.441863      54.592876      2.0493949e-29
     20000  -7726838.4      1004.9361      131416.06      9569.8106      7703.3711      8653.5132      43.418484      55.441863      54.592876      108.12473    
     40000  -7726849        1005.3359      131416.06      8156.3325      7840.0194      7937.7891      43.418484      55.441863      54.592876      210.09783    
     60000  -7726846.2      1016.4127      131416.06      6719.1552      8187.2634      7051.2594      43.418484      55.441863      54.592876      332.22547    
     80000  -7726868.1      991.82581      131416.06      7353.0697      6064.0655      7022.8096      43.418484      55.441863      54.592876      435.93142    
    100000  -7726844.8      1015.2961      131416.06      7510.4826      7333.725       7746.1677      43.418484      55.441863      54.592876      534.38893    
    120000  -7726870        984.75056      131416.06      7801.7771      8176.5603      8656.0767      43.418484      55.441863      54.592876      642.07705    
    140000  -7726856.8      991.38236      131416.06      6831.2617      6923.1169      5714.707       43.418484      55.441863      54.592876      744.63724    
    160000  -7726836.2      1009.3592      131416.06      7490.9756      7736.169       6993.213       43.418484      55.441863      54.592876      850.01216    
    180000  -7726880.5      989.68738      131416.06      7312.2819      6471.8188      6936.9543      43.418484      55.441863      54.592876      945.36414    
    200000  -7726870.1      1003.7161      131416.06      6596.8374      5421.7814      6229.9683      43.418484      55.441863      54.592876      1048.8028    
    220000  -7726848        998.06581      131416.06      7563.3718      8297.4686      6714.688       43.418484      55.441863      54.592876      1160.9208    
    240000  -7726865.2      996.16157      131416.06      6736.5304      7455.7799      5254.9277      43.418484      55.441863      54.592876      1264.6515    
    260000  -7726852.2      1009.4051      131416.06      7986.9739      7520.736       8408.8347      43.418484      55.441863      54.592876      1375.0674    
    280000  -7726854.3      995.31287      131416.06      6564.1552      6807.7957      6829.5566      43.418484      55.441863      54.592876      1461.074     
    300000  -7726879.2      984.96256      131416.06      8377.6891      7086.371       6686.7961      43.418484      55.441863      54.592876      1560.6755    
    320000  -7726865.8      1008.9007      131416.06      4556.0513      7324.9455      5908.5392      43.418484      55.441863      54.592876      1670.2398    
    340000  -7726843.4      1004.2634      131416.06      7507.6306      6755.2718      7863.993       43.418484      55.441863      54.592876      1777.8411    
    350000  -7726866.7      985.04578      131416.06      7966.0396      8071.858       7114.5387      43.418484      55.441863      54.592876      1825.6192    
Loop time of 1197.5 on 56 procs for 350000 steps with 5184 atoms

Performance: 75.758 ns/day, 0.317 hours/ns, 292.274 timesteps/s, 1.515 Matom-step/s
99.7% CPU use with 56 MPI tasks x 1 OpenMP threads

MPI task timing breakdown:
Section |  min time  |  avg time  |  max time  |%varavg| %total
---------------------------------------------------------------
Pair    | 901.52     | 921.44     | 974.61     |  41.0 | 76.95
Neigh   | 115.34     | 117.34     | 121.74     |  13.8 |  9.80
Comm    | 87.089     | 138.68     | 161.45     | 113.5 | 11.58
Output  | 0.0040427  | 0.0070341  | 0.0098653  |   2.0 |  0.00
Modify  | 13.462     | 19.501     | 25.736     |  77.7 |  1.63
Other   |            | 0.5356     |            |       |  0.04

Nlocal:        92.5714 ave         104 max          82 min
Histogram: 3 4 9 4 9 5 12 6 3 1
Nghost:        1073.93 ave        1094 max        1044 min
Histogram: 1 1 4 5 5 6 17 8 3 6
Neighs:              0 ave           0 max           0 min
Histogram: 56 0 0 0 0 0 0 0 0 0
FullNghs:      9300.79 ave       10390 max        8181 min
Histogram: 3 6 7 6 6 5 3 12 6 2

Total # of neighbors = 520844
Ave neighs/atom = 100.47145
Neighbor list builds = 350000
Dangerous builds not checked
System init for write_restart ...
Total wall time: 0:20:37
