LAMMPS (2 Aug 2023 - Update 3)
OMP_NUM_THREADS environment is not set. Defaulting to 1 thread. (../comm.cpp:98)
  using 1 OpenMP thread(s) per MPI task

The 'box' command has been removed and will be ignored

Reading data file ...
  triclinic box = (0 0 0) to (43.418484 55.441863 54.592876) with tilt (1.3561539 0.065021645 3.5799404)
  2 by 7 by 4 MPI processor grid
  reading atoms ...
  5184 atoms
  read_data CPU = 0.016 seconds
1728 atoms in group Na
2304 atoms in group S
864 atoms in group Zn
288 atoms in group Zr
Neighbor list info ...
  update: every = 1 steps, delay = 0 steps, check = no
  max neighbors/atom: 2000, page size: 100000
  master list distance cutoff = 8.5
  ghost atom cutoff = 8.5
  binsize = 4.25, bins = 11 14 13
  1 neighbor lists, perpetual/occasional/extra = 1 0 0
  (1) pair mlip, perpetual
      attributes: full, newton on
      pair build: full/bin/atomonly
      stencil: full/bin/3d
      bin: standard
Setting up cg style minimization ...
  Unit style    : metal
  Current step  : 0
Per MPI rank memory allocation (min/avg/max) = 3.732 | 3.733 | 3.735 Mbytes
   Step         PotEng         KinEng         TotEng         Press            Lx             Ly             Lz           Volume        Density    
         0  -7728147.4      0             -7728147.4      1317.9575      43.418484      55.441863      54.592876      131416.06      2.48107      
       100  -7728202.7      0             -7728202.7     -3598.3508      43.418484      55.441863      54.592876      131416.06      2.48107      
Loop time of 0.671778 on 56 procs for 100 steps with 5184 atoms

99.1% CPU use with 56 MPI tasks x 1 OpenMP threads

Minimization stats:
  Stopping criterion = energy tolerance
  Energy initial, next-to-last, final = 
     -7728147.38529246  -7728202.67468242  -7728202.74768945
  Force two-norm initial, final = 10.505337 1.0259659
  Force max component initial, final = 0.3077835 0.04673025
  Final line search alpha, max atom move = 1 0.04673025
  Iterations, force evaluations = 100 193

MPI task timing breakdown:
Section |  min time  |  avg time  |  max time  |%varavg| %total
---------------------------------------------------------------
Pair    | 0.41634    | 0.48372    | 0.5716     |   5.2 | 72.01
Neigh   | 0.052126   | 0.06173    | 0.072932   |   1.9 |  9.19
Comm    | 0.018901   | 0.11052    | 0.19211    |  13.5 | 16.45
Output  | 0          | 0          | 0          |   0.0 |  0.00
Modify  | 0          | 0          | 0          |   0.0 |  0.00
Other   |            | 0.01581    |            |       |  2.35

Nlocal:        92.5714 ave         109 max          80 min
Histogram: 2 7 7 11 14 5 2 0 3 5
Nghost:        1118.64 ave        1166 max        1074 min
Histogram: 5 4 4 6 12 5 10 2 4 4
Neighs:              0 ave           0 max           0 min
Histogram: 56 0 0 0 0 0 0 0 0 0
FullNghs:      9285.43 ave       11053 max        7898 min
Histogram: 2 7 7 8 16 6 2 0 3 5

Total # of neighbors = 519984
Ave neighs/atom = 100.30556
Neighbor list builds = 194
Dangerous builds not checked
System init for write_data ...
Setting up Verlet run ...
  Unit style    : metal
  Current step  : 0
  Time step     : 0.003
Per MPI rank memory allocation (min/avg/max) = 2.623 | 2.624 | 2.627 Mbytes
   Step         PotEng         KinEng         TotEng         Press            Lx             Ly             Lz           Volume        Density    
         0  -7728202.7      535.96427     -7727666.8      757.83594      43.418484      55.441863      54.592876      131416.06      2.48107      
Loop time of 4.4517e-06 on 56 procs for 0 steps with 5184 atoms

113.9% CPU use with 56 MPI tasks x 1 OpenMP threads

MPI task timing breakdown:
Section |  min time  |  avg time  |  max time  |%varavg| %total
---------------------------------------------------------------
Pair    | 0          | 0          | 0          |   0.0 |  0.00
Neigh   | 0          | 0          | 0          |   0.0 |  0.00
Comm    | 0          | 0          | 0          |   0.0 |  0.00
Output  | 0          | 0          | 0          |   0.0 |  0.00
Modify  | 0          | 0          | 0          |   0.0 |  0.00
Other   |            | 4.452e-06  |            |       |100.00

Nlocal:        92.5714 ave         109 max          80 min
Histogram: 2 7 7 11 14 5 2 0 3 5
Nghost:        1118.64 ave        1166 max        1074 min
Histogram: 5 4 4 6 12 5 10 2 4 4
Neighs:              0 ave           0 max           0 min
Histogram: 56 0 0 0 0 0 0 0 0 0
FullNghs:      9285.43 ave       11053 max        7898 min
Histogram: 2 7 7 8 16 6 2 0 3 5

Total # of neighbors = 519984
Ave neighs/atom = 100.30556
Neighbor list builds = 0
Dangerous builds not checked
System init for write_restart ...
Setting up Verlet run ...
  Unit style    : metal
  Current step  : 0
  Time step     : 0.003
Per MPI rank memory allocation (min/avg/max) = 2.982 | 2.983 | 2.986 Mbytes
   Step         TotEng          Temp          Volume          Pxx            Pyy            Pzz             Lx             Ly             Lz         c_msd1[4]   
         0  -7727666.8      800            131416.06      3704.8345     -1163.3249     -268.00174      43.418484      55.441863      54.592876      2.0493949e-29
     20000  -7727161        802.61112      131416.06      4163.5766      3373.0777      1134.0786      43.418484      55.441863      54.592876      48.244754    
     40000  -7727183.8      801.42947      131416.06      2958.9554      4279.9081      3049.2333      43.418484      55.441863      54.592876      95.111172    
     60000  -7727198.6      793.29523      131416.06      4089.3414      2213.7102      3033.311       43.418484      55.441863      54.592876      137.3318     
     80000  -7727186.7      807.89404      131416.06      3273.9636      2323.6009      2160.1731      43.418484      55.441863      54.592876      182.45514    
    100000  -7727212.7      794.45026      131416.06      2283.816       2089.4527      3259.7102      43.418484      55.441863      54.592876      230.51955    
    120000  -7727221.6      791.22934      131416.06      3605.7441      3858.5427      2175.1902      43.418484      55.441863      54.592876      278.75533    
    140000  -7727208.4      792.21814      131416.06      2634.0677      1846.8364      2723.7664      43.418484      55.441863      54.592876      325.35894    
    160000  -7727198.7      797.56729      131416.06      3237.5593      2843.2337      2331.3821      43.418484      55.441863      54.592876      369.4495     
    180000  -7727199.3      804.62156      131416.06      2787.421       3245.9784      2848.7616      43.418484      55.441863      54.592876      413.97563    
    200000  -7727222.3      790.17193      131416.06      2323.9602      2980.7721      2191.9243      43.418484      55.441863      54.592876      461.12391    
    220000  -7727193.6      810.78901      131416.06      3909.9972      2746.4026      4922.7762      43.418484      55.441863      54.592876      502.09568    
    240000  -7727202.6      798.77699      131416.06      3197.5429      3466.2348      2721.8066      43.418484      55.441863      54.592876      548.99566    
    260000  -7727200.3      797.10732      131416.06      2981.7104      2957.7688      3004.4753      43.418484      55.441863      54.592876      596.85727    
    280000  -7727201.7      802.77         131416.06      2917.5075      3318.8024      3901.8728      43.418484      55.441863      54.592876      654.86409    
    300000  -7727204.6      796.62322      131416.06      2295.5063      2026.5224      2550.4206      43.418484      55.441863      54.592876      703.66852    
    320000  -7727201.1      794.80531      131416.06      3116.1925      3281.0525      2673.162       43.418484      55.441863      54.592876      744.0927     
    340000  -7727216        799.51502      131416.06      2394.1502      3478.1484      1596.5191      43.418484      55.441863      54.592876      794.60368    
    350000  -7727183.9      816.82286      131416.06      2541.6296      3064.4882      3739.8538      43.418484      55.441863      54.592876      812.73958    
Loop time of 1191.85 on 56 procs for 350000 steps with 5184 atoms

Performance: 76.117 ns/day, 0.315 hours/ns, 293.660 timesteps/s, 1.522 Matom-step/s
99.7% CPU use with 56 MPI tasks x 1 OpenMP threads

MPI task timing breakdown:
Section |  min time  |  avg time  |  max time  |%varavg| %total
---------------------------------------------------------------
Pair    | 877.8      | 920.15     | 980.22     |  55.9 | 77.20
Neigh   | 112.38     | 116.79     | 121.76     |  15.4 |  9.80
Comm    | 76.34      | 135.84     | 186.4      | 158.1 | 11.40
Output  | 0.0040576  | 0.007011   | 0.01003    |   2.1 |  0.00
Modify  | 14.394     | 18.535     | 24.416     |  66.0 |  1.56
Other   |            | 0.5328     |            |       |  0.04

Nlocal:        92.5714 ave         100 max          84 min
Histogram: 3 3 3 4 1 15 18 3 3 3
Nghost:        1072.23 ave        1092 max        1051 min
Histogram: 2 6 0 8 10 10 8 4 6 2
Neighs:              0 ave           0 max           0 min
Histogram: 56 0 0 0 0 0 0 0 0 0
FullNghs:      9292.71 ave        9936 max        8170 min
Histogram: 1 1 5 4 3 7 10 12 5 8

Total # of neighbors = 520392
Ave neighs/atom = 100.38426
Neighbor list builds = 350000
Dangerous builds not checked
System init for write_restart ...
Total wall time: 0:20:32
