LAMMPS (2 Aug 2023 - Update 3)
OMP_NUM_THREADS environment is not set. Defaulting to 1 thread. (../comm.cpp:98)
  using 1 OpenMP thread(s) per MPI task

The 'box' command has been removed and will be ignored

Reading data file ...
  triclinic box = (0 0 0) to (43.418484 55.441863 54.592876) with tilt (1.3561539 0.065021645 3.5799404)
  2 by 7 by 4 MPI processor grid
  reading atoms ...
  5184 atoms
  read_data CPU = 0.016 seconds
1728 atoms in group Na
2304 atoms in group S
864 atoms in group Zn
288 atoms in group Zr
Neighbor list info ...
  update: every = 1 steps, delay = 0 steps, check = no
  max neighbors/atom: 2000, page size: 100000
  master list distance cutoff = 8.5
  ghost atom cutoff = 8.5
  binsize = 4.25, bins = 11 14 13
  1 neighbor lists, perpetual/occasional/extra = 1 0 0
  (1) pair mlip, perpetual
      attributes: full, newton on
      pair build: full/bin/atomonly
      stencil: full/bin/3d
      bin: standard
Setting up cg style minimization ...
  Unit style    : metal
  Current step  : 0
Per MPI rank memory allocation (min/avg/max) = 3.732 | 3.733 | 3.735 Mbytes
   Step         PotEng         KinEng         TotEng         Press            Lx             Ly             Lz           Volume        Density    
         0  -7728147.4      0             -7728147.4      1317.9575      43.418484      55.441863      54.592876      131416.06      2.48107      
       100  -7728202.7      0             -7728202.7     -3598.3508      43.418484      55.441863      54.592876      131416.06      2.48107      
Loop time of 0.664381 on 56 procs for 100 steps with 5184 atoms

99.2% CPU use with 56 MPI tasks x 1 OpenMP threads

Minimization stats:
  Stopping criterion = energy tolerance
  Energy initial, next-to-last, final = 
     -7728147.38529246  -7728202.67468242  -7728202.74768945
  Force two-norm initial, final = 10.505337 1.0259659
  Force max component initial, final = 0.3077835 0.04673025
  Final line search alpha, max atom move = 1 0.04673025
  Iterations, force evaluations = 100 193

MPI task timing breakdown:
Section |  min time  |  avg time  |  max time  |%varavg| %total
---------------------------------------------------------------
Pair    | 0.41715    | 0.48088    | 0.56321    |   5.0 | 72.38
Neigh   | 0.052193   | 0.061686   | 0.072779   |   1.9 |  9.28
Comm    | 0.023613   | 0.096975   | 0.18885    |  15.9 | 14.60
Output  | 0          | 0          | 0          |   0.0 |  0.00
Modify  | 0          | 0          | 0          |   0.0 |  0.00
Other   |            | 0.02484    |            |       |  3.74

Nlocal:        92.5714 ave         109 max          80 min
Histogram: 2 7 7 11 14 5 2 0 3 5
Nghost:        1118.64 ave        1166 max        1074 min
Histogram: 5 4 4 6 12 5 10 2 4 4
Neighs:              0 ave           0 max           0 min
Histogram: 56 0 0 0 0 0 0 0 0 0
FullNghs:      9285.43 ave       11053 max        7898 min
Histogram: 2 7 7 8 16 6 2 0 3 5

Total # of neighbors = 519984
Ave neighs/atom = 100.30556
Neighbor list builds = 194
Dangerous builds not checked
System init for write_data ...
Setting up Verlet run ...
  Unit style    : metal
  Current step  : 0
  Time step     : 0.003
Per MPI rank memory allocation (min/avg/max) = 2.623 | 2.624 | 2.627 Mbytes
   Step         PotEng         KinEng         TotEng         Press            Lx             Ly             Lz           Volume        Density    
         0  -7728202.7      200.9866      -7728001.8     -1964.7808      43.418484      55.441863      54.592876      131416.06      2.48107      
Loop time of 4.00182e-06 on 56 procs for 0 steps with 5184 atoms

116.5% CPU use with 56 MPI tasks x 1 OpenMP threads

MPI task timing breakdown:
Section |  min time  |  avg time  |  max time  |%varavg| %total
---------------------------------------------------------------
Pair    | 0          | 0          | 0          |   0.0 |  0.00
Neigh   | 0          | 0          | 0          |   0.0 |  0.00
Comm    | 0          | 0          | 0          |   0.0 |  0.00
Output  | 0          | 0          | 0          |   0.0 |  0.00
Modify  | 0          | 0          | 0          |   0.0 |  0.00
Other   |            | 4.002e-06  |            |       |100.00

Nlocal:        92.5714 ave         109 max          80 min
Histogram: 2 7 7 11 14 5 2 0 3 5
Nghost:        1118.64 ave        1166 max        1074 min
Histogram: 5 4 4 6 12 5 10 2 4 4
Neighs:              0 ave           0 max           0 min
Histogram: 56 0 0 0 0 0 0 0 0 0
FullNghs:      9285.43 ave       11053 max        7898 min
Histogram: 2 7 7 8 16 6 2 0 3 5

Total # of neighbors = 519984
Ave neighs/atom = 100.30556
Neighbor list builds = 0
Dangerous builds not checked
System init for write_restart ...
Setting up Verlet run ...
  Unit style    : metal
  Current step  : 0
  Time step     : 0.003
Per MPI rank memory allocation (min/avg/max) = 2.982 | 2.983 | 2.986 Mbytes
   Step         TotEng          Temp          Volume          Pxx            Pyy            Pzz             Lx             Ly             Lz         c_msd1[4]   
         0  -7728001.8      300            131416.06      1015.8562     -3849.8909     -3060.3076      43.418484      55.441863      54.592876      2.0493949e-29
     20000  -7727855        297.79123      131416.06     -1432.4998     -3516.3885     -3475.4801      43.418484      55.441863      54.592876      3.3622597    
     40000  -7727869        302.79346      131416.06     -124.81057     -4079.0928     -3539.6506      43.418484      55.441863      54.592876      4.6351124    
     60000  -7727887.1      296.75552      131416.06      340.42647     -4193.0002     -4152.7456      43.418484      55.441863      54.592876      5.5823449    
     80000  -7727879        302.76268      131416.06     -374.12103     -2460.3271     -4116.0955      43.418484      55.441863      54.592876      5.9484943    
    100000  -7727892.8      294.08685      131416.06     -1758.9481     -3880.508      -5042.1067      43.418484      55.441863      54.592876      6.3641074    
    120000  -7727891.6      299.88083      131416.06     -1538.0229     -4049.9961     -5397.7641      43.418484      55.441863      54.592876      6.3841003    
    140000  -7727891.2      303.09379      131416.06     -1506.5796     -3034.232      -4185.0833      43.418484      55.441863      54.592876      6.4202443    
    160000  -7727890.2      301.27741      131416.06     -1490.5118     -3557.4572     -4847.1504      43.418484      55.441863      54.592876      6.7774798    
    180000  -7727892.5      304.5298       131416.06     -471.99502     -3377.824      -4066.3938      43.418484      55.441863      54.592876      6.8359295    
    200000  -7727893.5      297.94278      131416.06     -1882.6117     -4044.8974     -5159.3968      43.418484      55.441863      54.592876      6.8968402    
    220000  -7727890.8      301.57175      131416.06     -1128.2386     -4352.1041     -5099.6373      43.418484      55.441863      54.592876      7.0262158    
    240000  -7727895        296.96444      131416.06     -1573.0468     -3344.4348     -4645.8137      43.418484      55.441863      54.592876      7.1105527    
    260000  -7727896.8      301.89945      131416.06     -882.18008     -3111.9405     -4432.4889      43.418484      55.441863      54.592876      7.2063135    
    280000  -7727895.4      296.91346      131416.06     -1425.522      -2930.2626     -5043.833       43.418484      55.441863      54.592876      7.2530323    
    300000  -7727895.9      301.32638      131416.06     -1258.9583     -3648.447      -4524.171       43.418484      55.441863      54.592876      7.3964567    
    320000  -7727898.7      297.75841      131416.06     -2288.7423     -3994.0951     -5309.5049      43.418484      55.441863      54.592876      7.481759     
    340000  -7727894.7      299.0862       131416.06     -1234.639      -4252.5403     -5441.9005      43.418484      55.441863      54.592876      7.5387735    
    350000  -7727898.4      299.50839      131416.06     -1700.0581     -4885.5995     -5805.7856      43.418484      55.441863      54.592876      7.5885994    
Loop time of 1234.65 on 56 procs for 350000 steps with 5184 atoms

Performance: 73.478 ns/day, 0.327 hours/ns, 283.481 timesteps/s, 1.470 Matom-step/s
99.7% CPU use with 56 MPI tasks x 1 OpenMP threads

MPI task timing breakdown:
Section |  min time  |  avg time  |  max time  |%varavg| %total
---------------------------------------------------------------
Pair    | 818.91     | 919.49     | 1060.7     | 159.8 | 74.47
Neigh   | 100.14     | 113.47     | 129.26     |  57.1 |  9.19
Comm    | 37.209     | 170.22     | 282.67     | 480.6 | 13.79
Output  | 0.04188    | 1.1411     | 1.6186     |  44.8 |  0.09
Modify  | 4.8447     | 29.289     | 77.7       | 485.1 |  2.37
Other   |            | 1.04       |            |       |  0.08

Nlocal:        92.5714 ave         108 max          82 min
Histogram: 2 10 6 9 6 17 2 2 0 2
Nghost:        1105.32 ave        1157 max        1059 min
Histogram: 1 3 6 11 10 11 10 0 1 3
Neighs:              0 ave           0 max           0 min
Histogram: 56 0 0 0 0 0 0 0 0 0
FullNghs:      9294.36 ave       10954 max        8190 min
Histogram: 2 8 10 9 7 12 4 2 1 1

Total # of neighbors = 520484
Ave neighs/atom = 100.40201
Neighbor list builds = 350000
Dangerous builds not checked
System init for write_restart ...
Total wall time: 0:21:15
