LAMMPS (2 Aug 2023 - Update 3)
OMP_NUM_THREADS environment is not set. Defaulting to 1 thread. (../comm.cpp:98)
  using 1 OpenMP thread(s) per MPI task

The 'box' command has been removed and will be ignored

Reading data file ...
  triclinic box = (0 0 0) to (43.418484 55.441863 54.592876) with tilt (1.3561539 0.065021645 3.5799404)
  2 by 7 by 4 MPI processor grid
  reading atoms ...
  5184 atoms
  read_data CPU = 0.016 seconds
1728 atoms in group Na
2304 atoms in group S
864 atoms in group Zn
288 atoms in group Zr
Neighbor list info ...
  update: every = 1 steps, delay = 0 steps, check = no
  max neighbors/atom: 2000, page size: 100000
  master list distance cutoff = 8.5
  ghost atom cutoff = 8.5
  binsize = 4.25, bins = 11 14 13
  1 neighbor lists, perpetual/occasional/extra = 1 0 0
  (1) pair mlip, perpetual
      attributes: full, newton on
      pair build: full/bin/atomonly
      stencil: full/bin/3d
      bin: standard
Setting up cg style minimization ...
  Unit style    : metal
  Current step  : 0
Per MPI rank memory allocation (min/avg/max) = 3.732 | 3.733 | 3.735 Mbytes
   Step         PotEng         KinEng         TotEng         Press            Lx             Ly             Lz           Volume        Density    
         0  -7728147.4      0             -7728147.4      1317.9575      43.418484      55.441863      54.592876      131416.06      2.48107      
       100  -7728202.7      0             -7728202.7     -3598.3508      43.418484      55.441863      54.592876      131416.06      2.48107      
Loop time of 0.668477 on 56 procs for 100 steps with 5184 atoms

99.2% CPU use with 56 MPI tasks x 1 OpenMP threads

Minimization stats:
  Stopping criterion = energy tolerance
  Energy initial, next-to-last, final = 
     -7728147.38529246  -7728202.67468242  -7728202.74768945
  Force two-norm initial, final = 10.505337 1.0259659
  Force max component initial, final = 0.3077835 0.04673025
  Final line search alpha, max atom move = 1 0.04673025
  Iterations, force evaluations = 100 193

MPI task timing breakdown:
Section |  min time  |  avg time  |  max time  |%varavg| %total
---------------------------------------------------------------
Pair    | 0.41565    | 0.48142    | 0.56796    |   5.1 | 72.02
Neigh   | 0.052402   | 0.061802   | 0.072711   |   1.9 |  9.25
Comm    | 0.023002   | 0.099436   | 0.19361    |  16.0 | 14.87
Output  | 0          | 0          | 0          |   0.0 |  0.00
Modify  | 0          | 0          | 0          |   0.0 |  0.00
Other   |            | 0.02582    |            |       |  3.86

Nlocal:        92.5714 ave         109 max          80 min
Histogram: 2 7 7 11 14 5 2 0 3 5
Nghost:        1118.64 ave        1166 max        1074 min
Histogram: 5 4 4 6 12 5 10 2 4 4
Neighs:              0 ave           0 max           0 min
Histogram: 56 0 0 0 0 0 0 0 0 0
FullNghs:      9285.43 ave       11053 max        7898 min
Histogram: 2 7 7 8 16 6 2 0 3 5

Total # of neighbors = 519984
Ave neighs/atom = 100.30556
Neighbor list builds = 194
Dangerous builds not checked
System init for write_data ...
Setting up Verlet run ...
  Unit style    : metal
  Current step  : 0
  Time step     : 0.003
Per MPI rank memory allocation (min/avg/max) = 2.623 | 2.624 | 2.627 Mbytes
   Step         PotEng         KinEng         TotEng         Press            Lx             Ly             Lz           Volume        Density    
         0  -7728202.7      401.9732      -7727800.8     -331.21074      43.418484      55.441863      54.592876      131416.06      2.48107      
Loop time of 4.10961e-06 on 56 procs for 0 steps with 5184 atoms

116.5% CPU use with 56 MPI tasks x 1 OpenMP threads

MPI task timing breakdown:
Section |  min time  |  avg time  |  max time  |%varavg| %total
---------------------------------------------------------------
Pair    | 0          | 0          | 0          |   0.0 |  0.00
Neigh   | 0          | 0          | 0          |   0.0 |  0.00
Comm    | 0          | 0          | 0          |   0.0 |  0.00
Output  | 0          | 0          | 0          |   0.0 |  0.00
Modify  | 0          | 0          | 0          |   0.0 |  0.00
Other   |            | 4.11e-06   |            |       |100.00

Nlocal:        92.5714 ave         109 max          80 min
Histogram: 2 7 7 11 14 5 2 0 3 5
Nghost:        1118.64 ave        1166 max        1074 min
Histogram: 5 4 4 6 12 5 10 2 4 4
Neighs:              0 ave           0 max           0 min
Histogram: 56 0 0 0 0 0 0 0 0 0
FullNghs:      9285.43 ave       11053 max        7898 min
Histogram: 2 7 7 8 16 6 2 0 3 5

Total # of neighbors = 519984
Ave neighs/atom = 100.30556
Neighbor list builds = 0
Dangerous builds not checked
System init for write_restart ...
Setting up Verlet run ...
  Unit style    : metal
  Current step  : 0
  Time step     : 0.003
Per MPI rank memory allocation (min/avg/max) = 2.982 | 2.983 | 2.986 Mbytes
   Step         TotEng          Temp          Volume          Pxx            Pyy            Pzz             Lx             Ly             Lz         c_msd1[4]   
         0  -7727800.8      600            131416.06      2706.6589     -2255.3636     -1444.9275      43.418484      55.441863      54.592876      2.0493949e-29
     20000  -7727472.1      594.53321      131416.06      1773.6317      1152.8478     -1306.5989      43.418484      55.441863      54.592876      16.961241    
     40000  -7727472.3      591.36904      131416.06      1466.2594      1820.8108     -1137.9023      43.418484      55.441863      54.592876      27.201444    
     60000  -7727490.6      595.88175      131416.06      137.13935      641.57694     -787.10771      43.418484      55.441863      54.592876      37.92951     
     80000  -7727488.2      597.02061      131416.06      92.939899      517.18745     -1555.4577      43.418484      55.441863      54.592876      46.828874    
    100000  -7727488.9      598.32422      131416.06      908.37555     -475.10733     -1582.697       43.418484      55.441863      54.592876      56.665163    
    120000  -7727502.5      593.25971      131416.06      373.46528      553.14643     -1181.9088      43.418484      55.441863      54.592876      67.158418    
    140000  -7727507.3      595.46889      131416.06      341.12855     -516.47828     -1631.5206      43.418484      55.441863      54.592876      78.224264    
    160000  -7727506.8      607.78508      131416.06     -110.66974     -1237.1334     -802.05907      43.418484      55.441863      54.592876      87.983342    
    180000  -7727509.5      599.63576      131416.06      569.81367      84.389997     -432.21305      43.418484      55.441863      54.592876      97.557474    
    200000  -7727513.8      599.40788      131416.06      784.56483     -446.83556     -87.803188      43.418484      55.441863      54.592876      107.55969    
    220000  -7727515.1      589.25103      131416.06     -820.44784     -1219.5994     -1154.6848      43.418484      55.441863      54.592876      116.53623    
    240000  -7727514.4      593.6432       131416.06     -1567.7562     -452.88072     -2458.6055      43.418484      55.441863      54.592876      126.04425    
    260000  -7727510        607.78201      131416.06      1415.8869     -489.30978     -441.56386      43.418484      55.441863      54.592876      134.87202    
    280000  -7727527.2      599.37046      131416.06     -543.92912      212.97786     -1006.568       43.418484      55.441863      54.592876      142.53931    
    300000  -7727516        607.53463      131416.06     -964.82602     -594.27354     -1560.0957      43.418484      55.441863      54.592876      153.079      
    320000  -7727511.7      597.66353      131416.06      434.6731      -87.225242     -1493.6086      43.418484      55.441863      54.592876      163.66987    
    340000  -7727505.5      615.75892      131416.06      914.31793     -516.92841     -798.69321      43.418484      55.441863      54.592876      173.66965    
    350000  -7727530.1      597.09633      131416.06     -238.43574      79.098892      454.75005      43.418484      55.441863      54.592876      179.19212    
Loop time of 1204.32 on 56 procs for 350000 steps with 5184 atoms

Performance: 75.329 ns/day, 0.319 hours/ns, 290.620 timesteps/s, 1.507 Matom-step/s
99.7% CPU use with 56 MPI tasks x 1 OpenMP threads

MPI task timing breakdown:
Section |  min time  |  avg time  |  max time  |%varavg| %total
---------------------------------------------------------------
Pair    | 829.05     | 921.61     | 1024.3     | 107.6 | 76.53
Neigh   | 105.74     | 115.8      | 127.51     |  34.3 |  9.62
Comm    | 51.404     | 145.5      | 255.55     | 320.7 | 12.08
Output  | 0.0074649  | 0.010373   | 0.013213   |   1.6 |  0.00
Modify  | 8.9334     | 20.847     | 42.113     | 227.8 |  1.73
Other   |            | 0.5498     |            |       |  0.05

Nlocal:        92.5714 ave         105 max          82 min
Histogram: 1 1 6 15 9 11 10 1 1 1
Nghost:        1083.32 ave        1106 max        1056 min
Histogram: 2 2 2 6 9 8 14 6 5 2
Neighs:              0 ave           0 max           0 min
Histogram: 56 0 0 0 0 0 0 0 0 0
FullNghs:      9287.68 ave       10609 max        8229 min
Histogram: 2 4 10 9 9 8 7 4 1 2

Total # of neighbors = 520110
Ave neighs/atom = 100.32986
Neighbor list builds = 350000
Dangerous builds not checked
System init for write_restart ...
Total wall time: 0:20:44
