LAMMPS (2 Aug 2023 - Update 3)
OMP_NUM_THREADS environment is not set. Defaulting to 1 thread. (../comm.cpp:98)
  using 1 OpenMP thread(s) per MPI task

The 'box' command has been removed and will be ignored

Reading data file ...
  triclinic box = (0 0 0) to (43.418484 55.441863 54.592876) with tilt (1.3561539 0.065021645 3.5799404)
  2 by 7 by 4 MPI processor grid
  reading atoms ...
  5184 atoms
  read_data CPU = 0.016 seconds
1728 atoms in group Na
2304 atoms in group S
864 atoms in group Zn
288 atoms in group Zr
Neighbor list info ...
  update: every = 1 steps, delay = 0 steps, check = no
  max neighbors/atom: 2000, page size: 100000
  master list distance cutoff = 8.5
  ghost atom cutoff = 8.5
  binsize = 4.25, bins = 11 14 13
  1 neighbor lists, perpetual/occasional/extra = 1 0 0
  (1) pair mlip, perpetual
      attributes: full, newton on
      pair build: full/bin/atomonly
      stencil: full/bin/3d
      bin: standard
Setting up cg style minimization ...
  Unit style    : metal
  Current step  : 0
Per MPI rank memory allocation (min/avg/max) = 3.732 | 3.733 | 3.735 Mbytes
   Step         PotEng         KinEng         TotEng         Press            Lx             Ly             Lz           Volume        Density    
         0  -7728147.4      0             -7728147.4      1317.9575      43.418484      55.441863      54.592876      131416.06      2.48107      
       100  -7728202.7      0             -7728202.7     -3598.3508      43.418484      55.441863      54.592876      131416.06      2.48107      
Loop time of 0.671016 on 56 procs for 100 steps with 5184 atoms

99.0% CPU use with 56 MPI tasks x 1 OpenMP threads

Minimization stats:
  Stopping criterion = energy tolerance
  Energy initial, next-to-last, final = 
     -7728147.38529246  -7728202.67468242  -7728202.74768945
  Force two-norm initial, final = 10.505337 1.0259659
  Force max component initial, final = 0.3077835 0.04673025
  Final line search alpha, max atom move = 1 0.04673025
  Iterations, force evaluations = 100 193

MPI task timing breakdown:
Section |  min time  |  avg time  |  max time  |%varavg| %total
---------------------------------------------------------------
Pair    | 0.41679    | 0.48342    | 0.57307    |   5.4 | 72.04
Neigh   | 0.052216   | 0.061699   | 0.073199   |   1.9 |  9.19
Comm    | 0.02099    | 0.10509    | 0.19633    |  15.0 | 15.66
Output  | 0          | 0          | 0          |   0.0 |  0.00
Modify  | 0          | 0          | 0          |   0.0 |  0.00
Other   |            | 0.02081    |            |       |  3.10

Nlocal:        92.5714 ave         109 max          80 min
Histogram: 2 7 7 11 14 5 2 0 3 5
Nghost:        1118.64 ave        1166 max        1074 min
Histogram: 5 4 4 6 12 5 10 2 4 4
Neighs:              0 ave           0 max           0 min
Histogram: 56 0 0 0 0 0 0 0 0 0
FullNghs:      9285.43 ave       11053 max        7898 min
Histogram: 2 7 7 8 16 6 2 0 3 5

Total # of neighbors = 519984
Ave neighs/atom = 100.30556
Neighbor list builds = 194
Dangerous builds not checked
System init for write_data ...
Setting up Verlet run ...
  Unit style    : metal
  Current step  : 0
  Time step     : 0.003
Per MPI rank memory allocation (min/avg/max) = 2.623 | 2.624 | 2.627 Mbytes
   Step         PotEng         KinEng         TotEng         Press            Lx             Ly             Lz           Volume        Density    
         0  -7728202.7      401.9732      -7727800.8     -331.21074      43.418484      55.441863      54.592876      131416.06      2.48107      
Loop time of 4.36604e-06 on 56 procs for 0 steps with 5184 atoms

119.8% CPU use with 56 MPI tasks x 1 OpenMP threads

MPI task timing breakdown:
Section |  min time  |  avg time  |  max time  |%varavg| %total
---------------------------------------------------------------
Pair    | 0          | 0          | 0          |   0.0 |  0.00
Neigh   | 0          | 0          | 0          |   0.0 |  0.00
Comm    | 0          | 0          | 0          |   0.0 |  0.00
Output  | 0          | 0          | 0          |   0.0 |  0.00
Modify  | 0          | 0          | 0          |   0.0 |  0.00
Other   |            | 4.366e-06  |            |       |100.00

Nlocal:        92.5714 ave         109 max          80 min
Histogram: 2 7 7 11 14 5 2 0 3 5
Nghost:        1118.64 ave        1166 max        1074 min
Histogram: 5 4 4 6 12 5 10 2 4 4
Neighs:              0 ave           0 max           0 min
Histogram: 56 0 0 0 0 0 0 0 0 0
FullNghs:      9285.43 ave       11053 max        7898 min
Histogram: 2 7 7 8 16 6 2 0 3 5

Total # of neighbors = 519984
Ave neighs/atom = 100.30556
Neighbor list builds = 0
Dangerous builds not checked
System init for write_restart ...
Setting up Verlet run ...
  Unit style    : metal
  Current step  : 0
  Time step     : 0.003
Per MPI rank memory allocation (min/avg/max) = 2.982 | 2.983 | 2.986 Mbytes
   Step         TotEng          Temp          Volume          Pxx            Pyy            Pzz             Lx             Ly             Lz         c_msd1[4]   
         0  -7727800.8      600            131416.06      2652.5265     -2200.3733     -1445.7855      43.418484      55.441863      54.592876      2.0493949e-29
     20000  -7727466.5      604.06683      131416.06      126.19337     -302.07041     -1218.318       43.418484      55.441863      54.592876      16.465353    
     40000  -7727476.8      595.83868      131416.06      415.18398      806.14025     -856.44017      43.418484      55.441863      54.592876      26.492383    
     60000  -7727476.4      597.11164      131416.06      1079.9778     -673.91009     -1625.911       43.418484      55.441863      54.592876      37.426596    
     80000  -7727470.6      611.75526      131416.06      153.91442     -171.52698     -1937.0938      43.418484      55.441863      54.592876      48.577032    
    100000  -7727502.1      591.4086       131416.06      121.6076      -296.15716     -2207.5157      43.418484      55.441863      54.592876      58.065267    
    120000  -7727490.8      596.62627      131416.06     -90.778433     -85.327117     -878.6044       43.418484      55.441863      54.592876      68.55467     
    140000  -7727503        597.35018      131416.06     -170.17964      643.30947     -896.52275      43.418484      55.441863      54.592876      79.314007    
    160000  -7727508        599.96251      131416.06     -923.52297     -187.1824      -1031.399       43.418484      55.441863      54.592876      89.061895    
    180000  -7727509.3      607.3538       131416.06     -393.37096     -306.66886     -1283.5769      43.418484      55.441863      54.592876      97.693186    
    200000  -7727498.6      608.01133      131416.06      177.32597      465.80409      261.67668      43.418484      55.441863      54.592876      108.5635     
    220000  -7727512.4      593.05102      131416.06     -621.97211     -1143.2315     -831.98379      43.418484      55.441863      54.592876      118.81323    
    240000  -7727508.8      603.39268      131416.06     -1140.1042     -186.67787     -1103.4828      43.418484      55.441863      54.592876      129.30978    
    260000  -7727508.3      602.77807      131416.06     -745.93257     -311.22777     -1093.3181      43.418484      55.441863      54.592876      138.09045    
    280000  -7727524.1      595.24512      131416.06     -771.02766     -485.57782     -245.63912      43.418484      55.441863      54.592876      146.93453    
    300000  -7727521        598.33305      131416.06      542.64342     -371.74696     -265.61578      43.418484      55.441863      54.592876      155.27462    
    320000  -7727527.5      593.05855      131416.06     -51.633905     -733.01765     -1125.6788      43.418484      55.441863      54.592876      163.23627    
    340000  -7727520.8      594.4842       131416.06     -363.5433       41.977015     -393.91812      43.418484      55.441863      54.592876      173.74518    
    350000  -7727523.1      589.09535      131416.06      341.48088      423.60416     -128.12562      43.418484      55.441863      54.592876      180.92754    
Loop time of 1187.04 on 56 procs for 350000 steps with 5184 atoms

Performance: 76.425 ns/day, 0.314 hours/ns, 294.851 timesteps/s, 1.529 Matom-step/s
99.7% CPU use with 56 MPI tasks x 1 OpenMP threads

MPI task timing breakdown:
Section |  min time  |  avg time  |  max time  |%varavg| %total
---------------------------------------------------------------
Pair    | 863.18     | 917.96     | 971.65     |  75.6 | 77.33
Neigh   | 109.53     | 115.63     | 121.56     |  24.6 |  9.74
Comm    | 76.63      | 134.56     | 196.7      | 216.1 | 11.34
Output  | 0.0041326  | 0.0069463  | 0.0098065  |   2.0 |  0.00
Modify  | 10.773     | 18.357     | 27.585     |  84.6 |  1.55
Other   |            | 0.5305     |            |       |  0.04

Nlocal:        92.5714 ave         102 max          80 min
Histogram: 2 0 1 5 11 13 8 10 4 2
Nghost:        1078.39 ave        1096 max        1046 min
Histogram: 1 2 2 4 3 6 9 11 13 5
Neighs:              0 ave           0 max           0 min
Histogram: 56 0 0 0 0 0 0 0 0 0
FullNghs:      9296.04 ave       10266 max        7969 min
Histogram: 2 0 3 3 10 11 11 7 6 3

Total # of neighbors = 520578
Ave neighs/atom = 100.42014
Neighbor list builds = 350000
Dangerous builds not checked
System init for write_restart ...
Total wall time: 0:20:27
