ITEM: TIMESTEP
0
ITEM: NUMBER OF ATOMS
5184
ITEM: BOX BOUNDS xy xz yz pp pp pp
0.0000000000000000e+00 4.4839659435136070e+01 1.3561538682405885e+00
0.0000000000000000e+00 5.9021803203053061e+01 6.5021644506496723e-02
0.0000000000000000e+00 5.4592876367629799e+01 3.5799404451706858e+00
ITEM: ATOMS id type element x y z
6 1 Na 1.37076 3.20697 0.405547
50 2 S 0.863775 2.54426 3.57413
53 2 S 3.74942 1.96766 1.2038
116 4 Zn 3.08034 1.76708 3.32395
2 1 Na 6.50288 2.29392 1.56919
82 2 S 8.07165 2.45567 3.84765
33 1 Na 11.8087 4.40261 1.16626
85 2 S 11.0904 1.73302 1.33296
128 4 Zn 10.2599 1.96835 3.41402
26 1 Na 13.3669 0.775987 2.81029
1734 1 Na 15.8436 3.20697 0.405547
1778 2 S 15.3366 2.54426 3.57413
1730 1 Na 20.9757 2.29392 1.56919
1781 2 S 18.2223 1.96766 1.2038
1844 4 Zn 17.5532 1.76708 3.32395
51 2 S 2.87739 5.85163 3.53622
113 4 Zn 0.697644 4.93308 3.08744
1 1 Na 4.22274 4.99794 1.32766
56 2 S 6.96059 5.13064 1.32413
126 4 Zn 7.77245 4.8301 3.39946
28 1 Na 8.94918 6.7607 0.34893
83 2 S 10.1168 5.63455 3.3996
134 4 Zn 10.2915 8.12813 3.31907
37 1 Na 13.4011 7.56606 2.65613
88 2 S 14.3366 5.50421 1.02249
1779 2 S 17.3502 5.85163 3.53622
1841 4 Zn 15.1705 4.93308 3.08744
1729 1 Na 18.6956 4.99794 1.32766
1784 2 S 21.4334 5.13064 1.32413
3 1 Na 2.32237 3.82764 5.91266
54 2 S 0.475022 2.41998 7.52189
49 2 S 4.47962 1.97872 5.23022
86 2 S 7.35972 2.30997 7.77333
115 4 Zn 6.74381 3.01162 5.71824
27 1 Na 10.1538 2.66618 7.51511
81 2 S 11.7514 1.53486 5.25834
127 4 Zn 13.9014 2.83967 5.5547
1731 1 Na 16.7952 3.82764 5.91266
1782 2 S 14.9479 2.41998 7.52189
1777 2 S 18.9525 1.97872 5.23022
1843 4 Zn 21.2166 3.01162 5.71824
55 2 S 3.42837 5.75284 7.48708
114 4 Zn 4.30835 6.28785 5.44036
15 1 Na 3.19603 8.40541 7.90002
4 1 Na 5.45837 4.41456 8.60738
25 1 Na 8.1854 6.05766 7.82424
52 2 S 6.6235 5.48663 5.3775
121 4 Zn 6.84109 8.13436 5.58359
87 2 S 10.8468 5.35681 7.52724
140 5 Zr 11.4925 6.09748 5.37506
40 1 Na 13.2714 7.4345 8.48909
84 2 S 13.7253 5.21345 5.04157
1732 1 Na 19.9312 4.41456 8.60738
1780 2 S 21.0963 5.48663 5.3775
1783 2 S 17.9012 5.75284 7.48708
1842 4 Zn 18.7812 6.28785 5.44036
1849 4 Zn 21.3139 8.13436 5.58359
1743 1 Na 17.6689 8.40541 7.90002
22 1 Na 2.13234 1.08101 9.42186
58 2 S 0.738206 2.51419 12.9257
61 2 S 3.86186 2.90559 10.4027
120 4 Zn 3.25524 2.03923 12.4045
5 1 Na 5.42818 0.878628 9.31339
90 2 S 8.14775 2.94669 13.1158
35 1 Na 7.98048 2.85201 10.3754
93 2 S 10.7095 2.37489 10.4228
132 4 Zn 10.3022 2.15544 12.633
29 1 Na 13.3647 2.37593 9.84775
1750 1 Na 16.6052 1.08101 9.42186
1786 2 S 15.211 2.51419 12.9257
1733 1 Na 19.901 0.878628 9.31339
1789 2 S 18.3347 2.90559 10.4027
1848 4 Zn 17.7281 2.03923 12.4045
12 1 Na 1.72516 4.51376 9.19657
59 2 S 3.02934 6.30696 12.8805
139 5 Zr 3.29212 8.66507 12.547
8 1 Na 5.19694 4.69179 12.0786
20 1 Na 6.99707 8.29081 10.5057
64 2 S 7.34425 5.5689 10.4897
129 4 Zn 8.20739 5.30875 12.6206
31 1 Na 10.9828 5.30039 10.3898
91 2 S 10.2643 6.44774 12.8929
44 1 Na 13.3243 7.68751 11.9265
96 2 S 13.8482 5.36078 10.3598
1740 1 Na 16.198 4.51376 9.19657
1845 4 Zn 14.4353 4.67014 12.3637
1787 2 S 17.5022 6.30696 12.8805
1867 5 Zr 17.7649 8.66507 12.547
1792 2 S 21.8171 5.5689 10.4897
1736 1 Na 19.6698 4.69179 12.0786
1748 1 Na 21.4699 8.29081 10.5057
9 1 Na 2.41367 4.10436 15.168
62 2 S 0.483752 2.53894 16.7862
11 1 Na 4.78289 1.87271 17.1858
57 2 S 4.50899 2.38815 14.3808
94 2 S 7.38665 2.65649 16.9713
119 4 Zn 6.63795 3.43307 14.8744
32 1 Na 9.89097 3.82346 16.9447
89 2 S 11.5841 2.39237 14.6737
34 1 Na 12.7402 1.38801 17.8701
131 4 Zn 13.8674 3.18881 14.9074
1737 1 Na 16.8865 4.10436 15.168
1790 2 S 14.9566 2.53894 16.7862
1739 1 Na 19.2557 1.87271 17.1858
1785 2 S 18.9818 2.38815 14.3808
1847 4 Zn 21.1108 3.43307 14.8744
7 1 Na 1.06997 7.17477 16.6412
63 2 S 3.5223 6.04194 16.772
10 1 Na 6.2622 5.38974 17.1404
30 1 Na 8.69977 7.60345 15.101
60 2 S 6.59511 5.81692 14.4427
118 4 Zn 4.43286 6.84929 14.8344
48 1 Na 12.473 8.3147 17.4151
95 2 S 10.6514 6.40402 16.7803
130 4 Zn 11.6108 6.14338 14.7567
92 2 S 13.8457 5.55048 14.4599
1735 1 Na 15.5428 7.17477 16.6412
1738 1 Na 20.735 5.38974 17.1404
1788 2 S 21.0679 5.81692 14.4427
1791 2 S 17.9951 6.04194 16.772
1846 4 Zn 18.9057 6.84929 14.8344
150 1 Na 1.39244 4.40028 18.6032
194 2 S 0.885449 3.73757 21.7718
197 2 S 3.7711 3.16098 19.4014
260 4 Zn 3.10202 2.96039 21.5216
146 1 Na 6.52456 3.48723 19.7668
226 2 S 8.09333 3.64898 22.0453
229 2 S 11.1121 2.92634 19.5306
272 4 Zn 10.2815 3.16167 21.6116
170 1 Na 13.3886 1.9693 21.0079
1878 1 Na 15.8653 4.40028 18.6032
1922 2 S 15.3583 3.73757 21.7718
1874 1 Na 20.9974 3.48723 19.7668
1925 2 S 18.2439 3.16098 19.4014
1988 4 Zn 17.5748 2.96039 21.5216
195 2 S 2.89907 7.04494 21.7338
257 4 Zn 0.719318 6.12639 21.2851
145 1 Na 4.24441 6.19126 19.5253
200 2 S 6.98227 6.32395 19.5218
270 4 Zn 7.79413 6.02341 21.5971
177 1 Na 11.8304 5.59593 19.3639
172 1 Na 8.97085 7.95401 18.5466
227 2 S 10.1385 6.82786 21.5972
278 4 Zn 10.3132 9.32144 21.5167
181 1 Na 13.4228 8.75937 20.8538
232 2 S 14.3582 6.69752 19.2201
1923 2 S 17.3719 7.04494 21.7338
1985 4 Zn 15.1921 6.12639 21.2851
1873 1 Na 18.7172 6.19126 19.5253
1928 2 S 21.4551 6.32395 19.5218
147 1 Na 2.34404 5.02096 24.1103
198 2 S 0.496696 3.6133 25.7195
193 2 S 4.5013 3.17203 23.4278
230 2 S 7.38139 3.50329 25.971
259 4 Zn 6.76548 4.20493 23.9159
171 1 Na 10.1755 3.85949 25.7127
225 2 S 11.7731 2.72818 23.456
271 4 Zn 13.9231 4.03298 23.7523
1875 1 Na 16.8169 5.02096 24.1103
1926 2 S 14.9695 3.6133 25.7195
1921 2 S 18.9741 3.17203 23.4278
1987 4 Zn 21.2383 4.20493 23.9159
199 2 S 3.45004 6.94615 25.6847
258 4 Zn 4.33003 7.48117 23.638
159 1 Na 3.2177 9.59872 26.0976
265 4 Zn 6.86276 9.32767 23.7812
148 1 Na 5.48005 5.60788 26.805
169 1 Na 8.20708 7.25098 26.0219
196 2 S 6.64518 6.67995 23.5751
231 2 S 10.8685 6.55012 25.7249
284 5 Zr 11.5141 7.29079 23.5727
184 1 Na 13.2931 8.62781 26.6867
228 2 S 13.7469 6.40676 23.2392
1986 4 Zn 18.8029 7.48117 23.638
1927 2 S 17.9229 6.94615 25.6847
1993 4 Zn 21.3356 9.32767 23.7812
1876 1 Na 19.9529 5.60788 26.805
1924 2 S 21.118 6.67995 23.5751
1887 1 Na 17.6905 9.59872 26.0976
156 1 Na 1.74683 5.70707 27.3942
166 1 Na 2.15401 2.27433 27.6195
202 2 S 0.759879 3.7075 31.1233
205 2 S 3.88353 4.0989 28.6003
264 4 Zn 3.27691 3.23255 30.6021
152 1 Na 5.21861 5.8851 30.2762
234 2 S 8.16942 4.14 31.3135
179 1 Na 8.00215 4.04533 28.5731
149 1 Na 5.44986 2.07194 27.511
237 2 S 10.7312 3.5682 28.6205
276 4 Zn 10.3239 3.34875 30.8306
1884 1 Na 16.2197 5.70707 27.3942
1894 1 Na 16.6268 2.27433 27.6195
1930 2 S 15.2327 3.7075 31.1233
173 1 Na 13.3864 3.56925 28.0454
1989 4 Zn 14.457 5.86345 30.5613
1880 1 Na 19.6914 5.8851 30.2762
1933 2 S 18.3564 4.0989 28.6003
1992 4 Zn 17.7497 3.23255 30.6021
1877 1 Na 19.9227 2.07194 27.511
203 2 S 3.05102 7.50028 31.0781
283 5 Zr 3.31379 9.85838 30.7447
164 1 Na 7.01875 9.48412 28.7033
208 2 S 7.36593 6.76221 28.6873
273 4 Zn 8.22906 6.50206 30.8182
175 1 Na 11.0045 6.4937 28.5874
235 2 S 10.286 7.64106 31.0905
188 1 Na 13.346 8.88083 30.1241
240 2 S 13.8698 6.55409 28.5574
1931 2 S 17.5238 7.50028 31.0781
1892 1 Na 21.4916 9.48412 28.7033
1936 2 S 21.8388 6.76221 28.6873
2011 5 Zr 17.7866 9.85838 30.7447
153 1 Na 2.43535 5.29768 33.3656
206 2 S 0.505426 3.73225 34.9838
155 1 Na 4.80457 3.06602 35.3834
201 2 S 4.53067 3.58146 32.5784
238 2 S 7.40832 3.8498 35.169
263 4 Zn 6.65962 4.62639 33.072
178 1 Na 12.7619 2.58132 36.0677
176 1 Na 9.91265 5.01678 35.1423
233 2 S 11.6058 3.58568 32.8713
275 4 Zn 13.8891 4.38212 33.105
1881 1 Na 16.9082 5.29768 33.3656
1934 2 S 14.9783 3.73225 34.9838
1883 1 Na 19.2774 3.06602 35.3834
1929 2 S 19.0035 3.58146 32.5784
1991 4 Zn 21.1325 4.62639 33.072
151 1 Na 1.09165 8.36808 34.8388
207 2 S 3.54397 7.23526 34.9696
154 1 Na 6.28387 6.58305 35.338
174 1 Na 8.72144 8.79676 33.2986
204 2 S 6.61679 7.01023 32.6403
262 4 Zn 4.45454 8.0426 33.032
192 1 Na 12.4947 9.50801 35.6127
239 2 S 10.6731 7.59734 34.9779
274 4 Zn 11.6325 7.3367 32.9543
236 2 S 13.8674 6.74379 32.6575
1879 1 Na 15.5645 8.36808 34.8388
1882 1 Na 20.7567 6.58305 35.338
1932 2 S 21.0896 7.01023 32.6403
1935 2 S 18.0168 7.23526 34.9696
1990 4 Zn 18.9274 8.0426 33.032
294 1 Na 1.41411 5.59359 36.8008
338 2 S 0.907123 4.93089 39.9694
341 2 S 3.79277 4.35429 37.599
404 4 Zn 3.12369 4.15371 39.7192
290 1 Na 6.54623 4.68055 37.9644
370 2 S 8.115 4.8423 40.2429
373 2 S 11.1338 4.11965 37.7282
416 4 Zn 10.3032 4.35498 39.8093
314 1 Na 13.4102 3.16261 39.2055
2022 1 Na 15.8869 5.59359 36.8008
2066 2 S 15.38 4.93089 39.9694
2018 1 Na 21.0191 4.68055 37.9644
2069 2 S 18.2656 4.35429 37.599
2132 4 Zn 17.5965 4.15371 39.7192
339 2 S 2.92074 8.23826 39.9315
401 4 Zn 0.740991 7.31971 39.4827
289 1 Na 4.26609 7.38457 37.7229
344 2 S 7.00394 7.51727 37.7194
414 4 Zn 7.8158 7.21673 39.7947
321 1 Na 11.8521 6.78924 37.5615
316 1 Na 8.99252 9.14733 36.7442
371 2 S 10.1601 8.02118 39.7948
422 4 Zn 10.3349 10.5148 39.7143
2129 4 Zn 15.2138 7.31971 39.4827
325 1 Na 13.4445 9.95268 39.0514
376 2 S 14.3799 7.89083 37.4177
2067 2 S 17.3936 8.23826 39.9315
2072 2 S 21.4768 7.51727 37.7194
2017 1 Na 18.7389 7.38457 37.7229
291 1 Na 2.36571 6.21427 42.3079
342 2 S 0.51837 4.80661 43.9171
292 1 Na 5.50172 6.80119 45.0026
337 2 S 4.52297 4.36535 41.6255
374 2 S 7.40307 4.6966 44.1686
403 4 Zn 6.78715 5.39825 42.1135
315 1 Na 10.1972 5.05281 43.9104
369 2 S 11.7948 3.92149 41.6536
415 4 Zn 13.9447 5.22629 41.95
2019 1 Na 16.8385 6.21427 42.3079
2070 2 S 14.9912 4.80661 43.9171
2020 1 Na 19.9745 6.80119 45.0026
2065 2 S 18.9958 4.36535 41.6255
2131 4 Zn 21.26 5.39825 42.1135
343 2 S 3.47172 8.13947 43.8823
402 4 Zn 4.3517 8.67448 41.8356
303 1 Na 3.23937 10.792 44.2953
313 1 Na 8.22875 8.44429 44.2195
340 2 S 6.66685 7.87326 41.7728
409 4 Zn 6.88443 10.521 41.9788
375 2 S 10.8902 7.74343 43.9225
428 5 Zr 11.5358 8.4841 41.7703
328 1 Na 13.3148 9.82112 44.8843
372 2 S 13.7686 7.60008 41.4368
2068 2 S 21.1397 7.87326 41.7728
2071 2 S 17.9445 8.13947 43.8823
2130 4 Zn 18.8245 8.67448 41.8356
2137 4 Zn 21.3573 10.521 41.9788
2031 1 Na 17.7122 10.792 44.2953
300 1 Na 1.76851 6.90039 45.5918
310 1 Na 2.17569 3.46764 45.8171
346 2 S 0.781553 4.90081 49.321
349 2 S 3.90521 5.29222 46.7979
408 4 Zn 3.29859 4.42586 48.7998
293 1 Na 5.47153 3.26525 45.7086
296 1 Na 5.24029 7.07841 48.4738
378 2 S 8.19109 5.33331 49.5111
323 1 Na 8.02383 5.23864 46.7707
381 2 S 10.7528 4.76152 46.8181
420 4 Zn 10.3456 4.54207 49.0283
317 1 Na 13.408 4.76256 46.243
2028 1 Na 16.2413 6.90039 45.5918
2038 1 Na 16.6485 3.46764 45.8171
2074 2 S 15.2544 4.90081 49.321
2133 4 Zn 14.4787 7.05676 48.7589
2021 1 Na 19.9444 3.26525 45.7086
2024 1 Na 19.7131 7.07841 48.4738
2077 2 S 18.378 5.29222 46.7979
2136 4 Zn 17.7714 4.42586 48.7998
347 2 S 3.07269 8.69359 49.2757
427 5 Zr 3.33546 11.0517 48.9423
308 1 Na 7.04042 10.6774 46.9009
352 2 S 7.3876 7.95553 46.8849
417 4 Zn 8.25074 7.69538 49.0158
319 1 Na 11.0262 7.68701 46.785
379 2 S 10.3077 8.83437 49.2881
332 1 Na 13.3677 10.0741 48.3217
384 2 S 13.8915 7.74741 46.7551
2075 2 S 17.5455 8.69359 49.2757
2036 1 Na 21.5133 10.6774 46.9009
2080 2 S 21.8604 7.95553 46.8849
2155 5 Zr 17.8083 11.0517 48.9423
297 1 Na 2.45702 6.49099 51.5632
350 2 S 0.5271 4.92556 53.1815
299 1 Na 4.82624 4.25934 53.5811
345 2 S 4.55234 4.77477 50.7761
382 2 S 7.42999 5.04311 53.3666
407 4 Zn 6.6813 5.8197 51.2696
322 1 Na 12.7836 3.77464 54.2653
320 1 Na 9.93432 6.21009 53.3399
377 2 S 11.6275 4.779 51.069
419 4 Zn 13.9107 5.57543 51.3026
2025 1 Na 16.9298 6.49099 51.5632
2078 2 S 14.9999 4.92556 53.1815
2027 1 Na 19.2991 4.25934 53.5811
2073 2 S 19.0252 4.77477 50.7761
2135 4 Zn 21.1541 5.8197 51.2696
295 1 Na 1.11332 9.5614 53.0364
351 2 S 3.56565 8.42857 53.1672
298 1 Na 6.30555 7.77636 53.5356
318 1 Na 8.74311 9.99007 51.4962
348 2 S 6.63846 8.20355 50.8379
406 4 Zn 4.47621 9.23591 51.2297
336 1 Na 12.5163 10.7013 53.8103
383 2 S 10.6948 8.79065 53.1755
418 4 Zn 11.6542 8.53001 51.152
380 2 S 13.889 7.93711 50.8551
2023 1 Na 15.5861 9.5614 53.0364
2079 2 S 18.0385 8.42857 53.1672
2134 4 Zn 18.949 9.23591 51.2297
2026 1 Na 20.7784 7.77636 53.5356
2076 2 S 21.1113 8.20355 50.8379
66 2 S 0.680499 9.05674 4.15654
69 2 S 2.93966 9.71525 1.68537
137 5 Zr 1.43478 11.1464 3.03619
122 4 Zn 2.86511 8.19009 3.55495
14 1 Na 5.2159 10.4684 2.98246
72 2 S 7.40793 11.9924 1.61073
98 2 S 8.08436 8.99804 3.67343
141 5 Zr 8.32159 11.4377 3.71858
41 1 Na 9.29431 10.1799 0.309892
47 1 Na 13.0474 10.4161 0.189347
101 2 S 11.2163 8.56605 1.26001
99 2 S 10.595 12.3056 3.57728
104 2 S 14.5957 12.3236 1.43714
1794 2 S 15.1533 9.05674 4.15654
1797 2 S 17.4125 9.71525 1.68537
1865 5 Zr 15.9076 11.1464 3.03619
1850 4 Zn 17.3379 8.19009 3.55495
1742 1 Na 19.6887 10.4684 2.98246
1800 2 S 21.8808 11.9924 1.61073
16 1 Na 2.44861 13.5422 0.404703
67 2 S 3.30405 12.6843 3.81673
485 2 S 4.08846 15.8281 1.2038
548 4 Zn 3.41938 15.6275 3.32395
471 1 Na 9.43618 13.7569 0.638794
517 2 S 11.4294 15.5935 1.33296
560 4 Zn 10.5989 15.8288 3.41402
458 1 Na 13.7059 14.6365 2.81029
1744 1 Na 16.9214 13.5422 0.404703
1795 2 S 17.7769 12.6843 3.81673
2213 2 S 18.5613 15.8281 1.2038
2276 4 Zn 17.8922 15.6275 3.32395
65 2 S 4.53675 8.70633 5.20455
3526 2 S 0.633023 9.61814 8.23238
17 1 Na 6.10573 10.9438 8.38718
68 2 S 6.88778 12.3252 5.54244
102 2 S 7.48943 8.69474 7.67803
38 1 Na 10.0981 9.43371 7.77839
97 2 S 11.6227 8.49511 5.29317
103 2 S 11.034 12.3198 7.60953
70 2 S 15.1059 9.61814 8.23238
100 2 S 14.28 12.2357 5.16121
133 4 Zn 14.7137 10.1128 6.14674
1745 1 Na 20.5786 10.9438 8.38718
1793 2 S 19.0096 8.70633 5.20455
1796 2 S 21.3606 12.3252 5.54244
13 1 Na 0.896863 13.5256 7.34182
71 2 S 3.86692 12.8981 7.84504
486 2 S 0.814061 16.2804 7.52189
518 2 S 7.69876 16.1704 7.77333
36 1 Na 8.45673 13.5129 7.54074
138 5 Zr 4.6789 13.4449 5.6683
481 2 S 4.81866 15.8392 5.23022
142 5 Zr 11.9395 12.9261 5.50336
513 2 S 12.0905 15.3953 5.25834
1741 1 Na 15.3697 13.5256 7.34182
2214 2 S 15.2869 16.2804 7.52189
1799 2 S 18.3397 12.8981 7.84504
1866 5 Zr 19.1517 13.4449 5.6683
2209 2 S 19.2915 15.8392 5.23022
24 1 Na 2.06039 11.323 9.98176
74 2 S 1.0506 9.70568 12.4815
77 2 S 4.31657 9.52106 10.5493
19 1 Na 5.25393 11.9516 11.7048
106 2 S 8.27072 9.76907 12.7143
135 4 Zn 8.16665 12.0944 12.2112
136 4 Zn 10.3598 8.76261 12.1547
43 1 Na 13.0814 11.0734 9.54215
109 2 S 11.4552 8.89983 10.1735
1752 1 Na 16.5332 11.323 9.98176
1802 2 S 15.5234 9.70568 12.4815
1747 1 Na 19.7268 11.9516 11.7048
1805 2 S 18.7894 9.52106 10.5493
75 2 S 3.16843 13.552 12.5979
123 4 Zn 0.816927 13.9892 12.216
454 1 Na 2.47138 14.9415 9.42186
552 4 Zn 3.59428 15.8997 12.4045
490 2 S 1.07724 16.3747 12.9257
80 2 S 7.56632 12.7777 10.132
437 1 Na 5.76722 14.7391 9.31339
46 1 Na 10.4975 13.5376 10.1873
107 2 S 10.299 13.2787 13.0213
525 2 S 11.0485 16.2354 10.4228
564 4 Zn 10.6413 16.0159 12.633
2182 1 Na 16.9442 14.9415 9.42186
461 1 Na 13.7037 16.2364 9.84775
112 2 S 14.6142 13.4371 10.1557
1803 2 S 17.6413 13.552 12.5979
1851 4 Zn 15.2898 13.9892 12.216
2218 2 S 15.5501 16.3747 12.9257
2280 4 Zn 18.0671 15.8997 12.4045
2165 1 Na 20.24 14.7391 9.31339
21 1 Na 2.93957 10.7358 16.9748
73 2 S 4.49369 9.32726 14.5734
3534 2 S 0.297937 9.91711 16.5748
23 1 Na 6.30938 12.1439 17.2916
76 2 S 6.72927 12.5798 14.1303
110 2 S 7.85065 9.89304 16.6349
125 4 Zn 6.76712 10.2178 14.6242
45 1 Na 9.80465 10.9685 15.0186
105 2 S 11.9752 9.45207 14.0759
111 2 S 11.0435 13.1649 16.8379
78 2 S 14.7708 9.91711 16.5748
108 2 S 14.144 12.941 14.1678
144 5 Zr 14.1103 10.4419 14.3571
1749 1 Na 17.4124 10.7358 16.9748
1751 1 Na 20.7822 12.1439 17.2916
1801 2 S 18.9665 9.32726 14.5734
1804 2 S 21.2021 12.5798 14.1303
1853 4 Zn 21.2399 10.2178 14.6242
18 1 Na 1.85355 14.4004 15.2431
79 2 S 3.92407 13.2738 16.6362
494 2 S 0.822791 16.3994 16.7862
42 1 Na 8.419 14.5983 15.0039
124 4 Zn 4.71022 13.7836 14.5159
443 1 Na 5.12193 15.7332 17.1858
489 2 S 4.84803 16.2486 14.3808
526 2 S 7.72569 16.517 16.9713
143 5 Zr 11.8922 13.8222 14.7064
466 1 Na 13.0793 15.2485 17.8701
521 2 S 11.9231 16.2528 14.6737
1746 1 Na 16.3264 14.4004 15.2431
2222 2 S 15.2956 16.3994 16.7862
1807 2 S 18.3969 13.2738 16.6362
1852 4 Zn 19.183 13.7836 14.5159
2171 1 Na 19.5948 15.7332 17.1858
2217 2 S 19.3209 16.2486 14.3808
210 2 S 0.702173 10.2501 22.3542
213 2 S 2.96133 10.9086 19.883
281 5 Zr 1.45646 12.3397 21.2338
266 4 Zn 2.88678 9.3834 21.7526
158 1 Na 5.23758 11.6617 21.1801
242 2 S 8.10603 10.1914 21.8711
285 5 Zr 8.34327 12.631 21.9162
216 2 S 7.4296 13.1857 19.8084
185 1 Na 9.31598 11.3732 18.5075
191 1 Na 13.0691 11.6094 18.387
245 2 S 11.2379 9.75937 19.4576
1938 2 S 15.175 10.2501 22.3542
1941 2 S 17.4342 10.9086 19.883
2009 5 Zr 15.9293 12.3397 21.2338
1994 4 Zn 17.3596 9.3834 21.7526
1886 1 Na 19.7104 11.6617 21.1801
1944 2 S 21.9024 13.1857 19.8084
160 1 Na 2.47029 14.7355 18.6023
211 2 S 3.32572 13.8776 22.0144
629 2 S 4.11013 17.0214 19.4014
692 4 Zn 3.44106 16.8209 21.5216
243 2 S 10.6166 13.4989 21.7749
615 1 Na 9.45786 14.9502 18.8364
661 2 S 11.4511 16.7868 19.5306
704 4 Zn 10.6206 17.0221 21.6116
248 2 S 14.6174 13.5169 19.6348
602 1 Na 13.7276 15.8298 21.0079
1888 1 Na 16.9431 14.7355 18.6023
1939 2 S 17.7985 13.8776 22.0144
2357 2 S 18.583 17.0214 19.4014
2420 4 Zn 17.9139 16.8209 21.5216
209 2 S 4.55842 9.89964 23.4022
3670 2 S 0.654697 10.8115 26.43
161 1 Na 6.12741 12.1371 26.5848
246 2 S 7.51111 9.88805 25.8757
182 1 Na 10.1198 10.627 25.976
241 2 S 11.6444 9.68843 23.4908
214 2 S 15.1275 10.8115 26.43
277 4 Zn 14.7353 11.3061 24.3444
1889 1 Na 20.6002 12.1371 26.5848
1937 2 S 19.0312 9.89964 23.4022
157 1 Na 0.918537 14.7189 25.5394
215 2 S 3.88859 14.0914 26.0427
630 2 S 0.835735 17.4738 25.7195
662 2 S 7.72043 17.3638 25.971
180 1 Na 8.4784 14.7062 25.7384
212 2 S 6.90946 13.5185 23.7401
282 5 Zr 4.70057 14.6382 23.8659
625 2 S 4.84034 17.0325 23.4278
247 2 S 11.0556 13.5131 25.8072
286 5 Zr 11.9612 14.1194 23.701
657 2 S 12.1121 16.5886 23.456
244 2 S 14.3017 13.429 23.3588
1885 1 Na 15.3914 14.7189 25.5394
2358 2 S 15.3086 17.4738 25.7195
2353 2 S 19.3132 17.0325 23.4278
2010 5 Zr 19.1734 14.6382 23.8659
1943 2 S 18.3614 14.0914 26.0427
1940 2 S 21.3823 13.5185 23.7401
168 1 Na 2.08206 12.5163 28.1794
218 2 S 1.07228 10.899 30.6791
221 2 S 4.33824 10.7144 28.7469
163 1 Na 5.27561 13.1449 29.9024
224 2 S 7.588 13.971 28.3296
250 2 S 8.29239 10.9624 30.9119
279 4 Zn 8.18832 13.2877 30.4088
187 1 Na 13.1031 12.2667 27.7398
253 2 S 11.4769 10.0931 28.3711
280 4 Zn 10.3815 9.95593 30.3524
1896 1 Na 16.5549 12.5163 28.1794
1946 2 S 15.5451 10.899 30.6791
1891 1 Na 19.7484 13.1449 29.9024
1949 2 S 18.8111 10.7144 28.7469
219 2 S 3.1901 14.7453 30.7955
267 4 Zn 0.8386 15.1825 30.4136
598 1 Na 2.49305 16.1348 27.6195
696 4 Zn 3.61595 17.093 30.6021
634 2 S 1.09892 17.568 31.1233
581 1 Na 5.78889 15.9324 27.511
190 1 Na 10.5192 14.7309 28.3849
251 2 S 10.3207 14.472 31.2189
669 2 S 11.0702 17.4287 28.6205
708 4 Zn 10.6629 17.2092 30.8306
256 2 S 14.6359 14.6304 28.3533
1947 2 S 17.6629 14.7453 30.7955
1995 4 Zn 15.3114 15.1825 30.4136
2326 1 Na 16.9659 16.1348 27.6195
2362 2 S 15.5717 17.568 31.1233
605 1 Na 13.7254 17.4297 28.0454
2424 4 Zn 18.0888 17.093 30.6021
2309 1 Na 20.2617 15.9324 27.511
165 1 Na 2.96125 11.9291 35.1725
217 2 S 4.51537 10.5206 32.771
3678 2 S 0.319611 11.1104 34.7724
167 1 Na 6.33105 13.3372 35.4893
220 2 S 6.75094 13.7731 32.3279
254 2 S 7.87233 11.0864 34.8326
269 4 Zn 6.78879 11.4111 32.8218
189 1 Na 9.82632 12.1619 33.2162
249 2 S 11.9968 10.6454 32.2736
222 2 S 14.7924 11.1104 34.7724
288 5 Zr 14.1319 11.6353 32.5547
1893 1 Na 17.4341 11.9291 35.1725
1895 1 Na 20.8039 13.3372 35.4893
1945 2 S 18.9882 10.5206 32.771
1948 2 S 21.2238 13.7731 32.3279
1997 4 Zn 21.2616 11.4111 32.8218
162 1 Na 1.87522 15.5937 33.4408
223 2 S 3.94574 14.4671 34.8338
638 2 S 0.844464 17.5927 34.9838
186 1 Na 8.44067 15.7916 33.2015
268 4 Zn 4.73189 14.9769 32.7135
587 1 Na 5.14361 16.9265 35.3834
633 2 S 4.86971 17.4419 32.5784
670 2 S 7.74736 17.7103 35.169
255 2 S 11.0652 14.3582 35.0355
287 5 Zr 11.9139 15.0155 32.904
610 1 Na 13.1009 16.4418 36.0677
665 2 S 11.9448 17.4461 32.8713
252 2 S 14.1657 14.1344 32.3654
1890 1 Na 16.3481 15.5937 33.4408
2366 2 S 15.3173 17.5927 34.9838
1951 2 S 18.4186 14.4671 34.8338
1996 4 Zn 19.2047 14.9769 32.7135
2315 1 Na 19.6164 16.9265 35.3834
2361 2 S 19.3425 17.4419 32.5784
354 2 S 0.723846 11.4434 40.5518
357 2 S 2.983 12.1019 38.0806
425 5 Zr 1.47813 13.533 39.4314
410 4 Zn 2.90845 10.5767 39.9502
302 1 Na 5.25925 12.855 39.3777
386 2 S 8.12771 11.3847 40.0687
429 5 Zr 8.36494 13.8244 40.1138
329 1 Na 9.33766 12.5666 36.7051
335 1 Na 13.0908 12.8027 36.5846
389 2 S 11.2596 10.9527 37.6553
2082 2 S 15.1967 11.4434 40.5518
2085 2 S 17.4558 12.1019 38.0806
2153 5 Zr 15.951 13.533 39.4314
2138 4 Zn 17.3813 10.5767 39.9502
2030 1 Na 19.7321 12.855 39.3777
304 1 Na 2.49196 15.9288 36.8
355 2 S 3.34739 15.0709 40.212
773 2 S 4.13181 18.2148 37.599
836 4 Zn 3.46273 18.0142 39.7192
360 2 S 7.45127 14.379 38.006
387 2 S 10.6383 14.6923 39.9725
759 1 Na 9.47953 16.1435 37.034
805 2 S 11.4728 17.9801 37.7282
848 4 Zn 10.6423 18.2154 39.8093
392 2 S 14.639 14.7102 37.8324
746 1 Na 13.7493 17.0231 39.2055
2032 1 Na 16.9648 15.9288 36.8
2564 4 Zn 17.9356 18.0142 39.7192
2083 2 S 17.8202 15.0709 40.212
2088 2 S 21.9241 14.379 38.006
2501 2 S 18.6046 18.2148 37.599
353 2 S 4.58009 11.093 41.5998
3814 2 S 0.676371 12.0048 44.6276
305 1 Na 6.14908 13.3304 44.7824
356 2 S 6.93113 14.7118 41.9377
390 2 S 7.53278 11.0814 44.0733
326 1 Na 10.1415 11.8203 44.1736
385 2 S 11.6661 10.8817 41.6884
391 2 S 11.0773 14.7064 44.0048
358 2 S 15.1492 12.0048 44.6276
388 2 S 14.3233 14.6223 41.5565
421 4 Zn 14.757 12.4994 42.542
2033 1 Na 20.6219 13.3304 44.7824
2081 2 S 19.0529 11.093 41.5998
2084 2 S 21.404 14.7118 41.9377
301 1 Na 0.94021 15.9122 43.7371
359 2 S 3.91026 15.2847 44.2403
774 2 S 0.857408 18.6671 43.9171
324 1 Na 8.50008 15.8995 43.936
426 5 Zr 4.72225 15.8316 42.0635
769 2 S 4.86201 18.2258 41.6255
806 2 S 7.7421 18.5571 44.1686
430 5 Zr 11.9828 15.3127 41.8986
801 2 S 12.1338 17.782 41.6536
2029 1 Na 15.413 15.9122 43.7371
2502 2 S 15.3302 18.6671 43.9171
2087 2 S 18.3831 15.2847 44.2403
2154 5 Zr 19.1951 15.8316 42.0635
2497 2 S 19.3348 18.2258 41.6255
312 1 Na 2.10374 13.7096 46.377
362 2 S 1.09395 12.0923 48.8768
365 2 S 4.35991 11.9077 46.9445
307 1 Na 5.29728 14.3382 48.1
394 2 S 8.31407 12.1557 49.1095
423 4 Zn 8.21 14.481 48.6064
331 1 Na 13.1248 13.46 45.9374
397 2 S 11.4985 11.2865 46.5687
424 4 Zn 10.4032 11.1492 48.55
2040 1 Na 16.5766 13.7096 46.377
2090 2 S 15.5668 12.0923 48.8768
2035 1 Na 19.7701 14.3382 48.1
2093 2 S 18.8327 11.9077 46.9445
363 2 S 3.21178 15.9386 48.9932
411 4 Zn 0.860274 16.3758 48.6112
742 1 Na 2.51472 17.3281 45.8171
840 4 Zn 3.63763 18.2863 48.7998
778 2 S 1.12059 18.7613 49.321
368 2 S 7.60967 15.1643 46.5273
725 1 Na 5.81057 17.1257 45.7086
334 1 Na 10.5409 15.9242 46.5825
395 2 S 10.3424 15.6653 49.4165
813 2 S 11.0919 18.622 46.8181
852 4 Zn 10.6846 18.4025 49.0283
749 1 Na 13.7471 18.623 46.243
400 2 S 14.6576 15.8237 46.5509
2091 2 S 17.6846 15.9386 48.9932
2139 4 Zn 15.3331 16.3758 48.6112
2470 1 Na 16.9876 17.3281 45.8171
2506 2 S 15.5934 18.7613 49.321
2453 1 Na 20.2834 17.1257 45.7086
2568 4 Zn 18.1105 18.2863 48.7998
3822 2 S 0.341284 12.3037 52.97
309 1 Na 2.98292 13.1225 53.3701
361 2 S 4.53704 11.7139 50.9686
311 1 Na 6.35272 14.5305 53.6869
364 2 S 6.77261 14.9664 50.5256
398 2 S 7.894 12.2797 53.0302
413 4 Zn 6.81046 12.6044 51.0194
333 1 Na 9.84799 13.3552 51.4138
393 2 S 12.0185 11.8387 50.4712
366 2 S 14.8141 12.3037 52.97
432 5 Zr 14.1536 12.8286 50.7523
2037 1 Na 17.4557 13.1225 53.3701
2039 1 Na 20.8256 14.5305 53.6869
2089 2 S 19.0099 11.7139 50.9686
2092 2 S 21.2454 14.9664 50.5256
2141 4 Zn 21.2833 12.6044 51.0194
306 1 Na 1.8969 16.787 51.6384
367 2 S 3.96741 15.6604 53.0315
782 2 S 0.866138 18.786 53.1815
330 1 Na 8.46235 16.9849 51.3991
412 4 Zn 4.75356 16.1702 50.9111
731 1 Na 5.16528 18.1198 53.5811
777 2 S 4.89138 18.6352 50.7761
814 2 S 7.76903 18.9036 53.3666
399 2 S 11.0868 15.5516 53.2331
431 5 Zr 11.9356 16.2088 51.1016
754 1 Na 13.1226 17.6351 54.2653
809 2 S 11.9665 18.6395 51.069
396 2 S 14.1873 15.3277 50.563
2034 1 Na 16.3697 16.787 51.6384
2510 2 S 15.339 18.786 53.1815
2505 2 S 19.3642 18.6352 50.7761
2095 2 S 18.4402 15.6604 53.0315
2140 4 Zn 19.2264 16.1702 50.9111
2459 1 Na 19.6381 18.1198 53.5811
438 1 Na 1.7098 17.0674 0.405547
482 2 S 1.20281 16.4047 3.57413
483 2 S 3.21643 19.7121 3.53622
545 4 Zn 1.03668 18.7935 3.08744
433 1 Na 4.56178 18.8584 1.32766
488 2 S 7.29963 18.9911 1.32413
514 2 S 8.41069 16.3161 3.84765
558 4 Zn 8.11149 18.6906 3.39946
434 1 Na 6.84192 16.1544 1.56919
465 1 Na 12.1478 18.2631 1.16626
515 2 S 10.4558 19.495 3.3996
520 2 S 14.6756 19.3647 1.02249
2166 1 Na 16.1826 17.0674 0.405547
2210 2 S 15.6756 16.4047 3.57413
2211 2 S 17.6893 19.7121 3.53622
2273 4 Zn 15.5095 18.7935 3.08744
2161 1 Na 19.0346 18.8584 1.32766
2216 2 S 21.7725 18.9911 1.32413
2162 1 Na 21.3148 16.1544 1.56919
498 2 S 1.01954 22.9172 4.15654
501 2 S 3.27869 23.5757 1.68537
554 4 Zn 3.20414 22.0506 3.55495
530 2 S 8.4234 22.8585 3.67343
460 1 Na 9.28821 20.6212 0.34893
533 2 S 11.5553 22.4265 1.26001
566 4 Zn 10.6306 21.9886 3.31907
469 1 Na 13.7401 21.4265 2.65613
2226 2 S 15.4924 22.9172 4.15654
2282 4 Zn 17.677 22.0506 3.55495
2229 2 S 17.7515 23.5757 1.68537
435 1 Na 2.6614 17.6881 5.91266
487 2 S 3.76741 19.6133 7.48708
546 4 Zn 4.64739 20.1483 5.44036
436 1 Na 5.79741 18.275 8.60738
484 2 S 6.96254 19.3471 5.3775
547 4 Zn 7.08284 16.8721 5.71824
457 1 Na 8.52444 19.9181 7.82424
459 1 Na 10.4929 16.5266 7.51511
519 2 S 11.1859 19.2173 7.52724
572 5 Zr 11.8315 19.9579 5.37506
516 2 S 14.0643 19.0739 5.04157
559 4 Zn 14.2404 16.7001 5.5547
2163 1 Na 17.1342 17.6881 5.91266
2164 1 Na 20.2702 18.275 8.60738
2212 2 S 21.4354 19.3471 5.3775
2215 2 S 18.2402 19.6133 7.48708
2274 4 Zn 19.1202 20.1483 5.44036
2275 4 Zn 21.5557 16.8721 5.71824
3958 2 S 0.972062 23.4786 8.23238
447 1 Na 3.53507 22.2659 7.90002
497 2 S 4.87579 22.5668 5.20455
534 2 S 7.82847 22.5552 7.67803
553 4 Zn 7.18013 21.9948 5.58359
470 1 Na 10.4372 23.2942 7.77839
529 2 S 11.9618 22.3556 5.29317
472 1 Na 13.6105 21.295 8.48909
502 2 S 15.4449 23.4786 8.23238
565 4 Zn 15.0527 23.9733 6.14674
2175 1 Na 18.0079 22.2659 7.90002
2225 2 S 19.3486 22.5668 5.20455
2281 4 Zn 21.653 21.9948 5.58359
444 1 Na 2.0642 18.3742 9.19657
491 2 S 3.36838 20.1674 12.8805
493 2 S 4.2009 16.7661 10.4027
440 1 Na 5.53598 18.5523 12.0786
496 2 S 7.68329 19.4294 10.4897
522 2 S 8.48678 16.8072 13.1158
561 4 Zn 8.54643 19.1692 12.6206
467 1 Na 8.31952 16.7125 10.3754
463 1 Na 11.3219 19.1609 10.3898
528 2 S 14.1872 19.2212 10.3598
2172 1 Na 16.537 18.3742 9.19657
2219 2 S 17.8412 20.1674 12.8805
2277 4 Zn 14.7744 18.5306 12.3637
2168 1 Na 20.0088 18.5523 12.0786
2221 2 S 18.6737 16.7661 10.4027
2224 2 S 22.1561 19.4294 10.4897
506 2 S 1.38964 23.5662 12.4815
509 2 S 4.65561 23.3815 10.5493
571 5 Zr 3.63115 22.5255 12.547
452 1 Na 7.33611 22.1513 10.5057
538 2 S 8.60976 23.6295 12.7143
523 2 S 10.6034 20.3082 12.8929
541 2 S 11.7942 22.7603 10.1735
568 4 Zn 10.6988 22.6231 12.1547
2234 2 S 15.8625 23.5662 12.4815
476 1 Na 13.6634 21.548 11.9265
2180 1 Na 21.8089 22.1513 10.5057
2299 5 Zr 18.104 22.5255 12.547
2237 2 S 19.1284 23.3815 10.5493
439 1 Na 1.40901 21.0352 16.6412
441 1 Na 2.75271 17.9648 15.168
495 2 S 3.86134 19.9024 16.772
550 4 Zn 4.7719 20.7098 14.8344
442 1 Na 6.60124 19.2502 17.1404
492 2 S 6.93415 19.6774 14.4427
551 4 Zn 6.97699 17.2935 14.8744
464 1 Na 10.23 17.6839 16.9447
527 2 S 10.9904 20.2645 16.7803
562 4 Zn 11.9499 20.0039 14.7567
524 2 S 14.1847 19.4109 14.4599
563 4 Zn 14.2064 17.0493 14.9074
2167 1 Na 15.8818 21.0352 16.6412
2169 1 Na 17.2255 17.9648 15.168
2170 1 Na 21.0741 19.2502 17.1404
2220 2 S 21.407 19.6774 14.4427
2223 2 S 18.3342 19.9024 16.772
2278 4 Zn 19.2447 20.7098 14.8344
2279 4 Zn 21.4498 17.2935 14.8744
453 1 Na 3.27861 24.5963 16.9748
3966 2 S 0.636975 23.7776 16.5748
462 1 Na 9.03881 21.4639 15.101
505 2 S 4.83273 23.1877 14.5734
542 2 S 8.18969 23.7535 16.6349
557 4 Zn 7.10615 24.0782 14.6242
480 1 Na 12.812 22.1752 17.4151
537 2 S 12.3142 23.3125 14.0759
510 2 S 15.1098 23.7776 16.5748
576 5 Zr 14.4493 24.3024 14.3571
2181 1 Na 17.7514 24.5963 16.9748
2233 2 S 19.3056 23.1877 14.5734
2285 4 Zn 21.579 24.0782 14.6242
582 1 Na 1.73147 18.2607 18.6032
626 2 S 1.22449 17.598 21.7718
627 2 S 3.23811 20.9054 21.7338
689 4 Zn 1.05836 19.9869 21.2851
577 1 Na 4.58345 20.0517 19.5253
632 2 S 7.32131 20.1844 19.5218
658 2 S 8.43237 17.5094 22.0453
702 4 Zn 8.13316 19.8839 21.5971
578 1 Na 6.8636 17.3477 19.7668
609 1 Na 12.1694 19.4564 19.3639
659 2 S 10.4775 20.6883 21.5972
664 2 S 14.6973 20.558 19.2201
2310 1 Na 16.2043 18.2607 18.6032
2354 2 S 15.6973 17.598 21.7718
2355 2 S 17.7109 20.9054 21.7338
2417 4 Zn 15.5312 19.9869 21.2851
2305 1 Na 19.0563 20.0517 19.5253
2360 2 S 21.7941 20.1844 19.5218
2306 1 Na 21.3364 17.3477 19.7668
642 2 S 1.04121 24.1105 22.3542
645 2 S 3.30037 24.769 19.883
698 4 Zn 3.22582 23.2439 21.7526
674 2 S 8.44507 24.0518 21.8711
604 1 Na 9.30989 21.8145 18.5466
677 2 S 11.577 23.6198 19.4576
710 4 Zn 10.6523 23.1819 21.5167
613 1 Na 13.7618 22.6198 20.8538
2370 2 S 15.514 24.1105 22.3542
2426 4 Zn 17.6986 23.2439 21.7526
2373 2 S 17.7732 24.769 19.883
579 1 Na 2.68308 18.8814 24.1103
631 2 S 3.78908 20.8066 25.6847
580 1 Na 5.81908 19.4683 26.805
628 2 S 6.98421 20.5404 23.5751
691 4 Zn 7.10452 18.0654 23.9159
601 1 Na 8.54612 21.1114 26.0219
603 1 Na 10.5145 17.72 25.7127
663 2 S 11.2075 20.4106 25.7249
660 2 S 14.086 20.2672 23.2392
703 4 Zn 14.2621 17.8934 23.7523
2307 1 Na 17.1559 18.8814 24.1103
2308 1 Na 20.2919 19.4683 26.805
2356 2 S 21.457 20.5404 23.5751
2359 2 S 18.2619 20.8066 25.6847
2419 4 Zn 21.5773 18.0654 23.9159
4102 2 S 0.993736 24.6719 26.43
591 1 Na 3.55674 23.4592 26.0976
690 4 Zn 4.66906 21.3416 23.638
641 2 S 4.89746 23.7601 23.4022
678 2 S 7.85014 23.7485 25.8757